Title: * simulation de rc2
Date: Tue May 10 19:38:12  2022
Plotname: DC transfer characteristic
Flags: real
No. Variables: 5
No. Points: 501
Variables:
	0	v(v-sweep)	voltage
	1	v(n0)	voltage
	2	v(n1)	voltage
	3	v(n2)	voltage
	4	i(v1)	current
Values:
 0	0.000000000000000e+00
	0.000000000000000e+00
	-1.000000000000000e+00
	-2.000000000000000e+00
	-1.000000000000000e-03

 1	1.000000000000000e-02
	1.000000000000000e-02
	-9.900000000000000e-01
	-1.990000000000000e+00
	-1.000000000000000e-03

 2	2.000000000000000e-02
	2.000000000000000e-02
	-9.800000000000000e-01
	-1.980000000000000e+00
	-1.000000000000000e-03

 3	3.000000000000000e-02
	3.000000000000000e-02
	-9.700000000000001e-01
	-1.970000000000000e+00
	-1.000000000000000e-03

 4	4.000000000000000e-02
	4.000000000000000e-02
	-9.600000000000001e-01
	-1.960000000000000e+00
	-1.000000000000000e-03

 5	5.000000000000000e-02
	5.000000000000000e-02
	-9.500000000000000e-01
	-1.950000000000000e+00
	-1.000000000000000e-03

 6	6.000000000000000e-02
	6.000000000000000e-02
	-9.399999999999999e-01
	-1.940000000000000e+00
	-1.000000000000000e-03

 7	7.000000000000001e-02
	7.000000000000001e-02
	-9.300000000000000e-01
	-1.930000000000000e+00
	-1.000000000000000e-03

 8	8.000000000000000e-02
	8.000000000000000e-02
	-9.200000000000000e-01
	-1.920000000000000e+00
	-1.000000000000000e-03

 9	9.000000000000000e-02
	9.000000000000000e-02
	-9.100000000000000e-01
	-1.910000000000000e+00
	-1.000000000000000e-03

 10	9.999999999999999e-02
	9.999999999999999e-02
	-9.000000000000000e-01
	-1.900000000000000e+00
	-1.000000000000000e-03

 11	1.100000000000000e-01
	1.100000000000000e-01
	-8.900000000000000e-01
	-1.890000000000000e+00
	-1.000000000000000e-03

 12	1.200000000000000e-01
	1.200000000000000e-01
	-8.800000000000000e-01
	-1.880000000000000e+00
	-1.000000000000000e-03

 13	1.300000000000000e-01
	1.300000000000000e-01
	-8.700000000000000e-01
	-1.870000000000000e+00
	-1.000000000000000e-03

 14	1.400000000000000e-01
	1.400000000000000e-01
	-8.600000000000001e-01
	-1.860000000000000e+00
	-1.000000000000000e-03

 15	1.500000000000000e-01
	1.500000000000000e-01
	-8.500000000000001e-01
	-1.850000000000000e+00
	-1.000000000000000e-03

 16	1.600000000000000e-01
	1.600000000000000e-01
	-8.400000000000001e-01
	-1.840000000000000e+00
	-1.000000000000000e-03

 17	1.700000000000000e-01
	1.700000000000000e-01
	-8.300000000000000e-01
	-1.830000000000000e+00
	-1.000000000000000e-03

 18	1.800000000000000e-01
	1.800000000000000e-01
	-8.200000000000000e-01
	-1.820000000000000e+00
	-1.000000000000000e-03

 19	1.900000000000000e-01
	1.900000000000000e-01
	-8.099999999999999e-01
	-1.810000000000000e+00
	-1.000000000000000e-03

 20	2.000000000000000e-01
	2.000000000000000e-01
	-7.999999999999999e-01
	-1.800000000000000e+00
	-1.000000000000000e-03

 21	2.100000000000000e-01
	2.100000000000000e-01
	-7.899999999999999e-01
	-1.790000000000000e+00
	-1.000000000000000e-03

 22	2.200000000000001e-01
	2.200000000000001e-01
	-7.800000000000000e-01
	-1.780000000000000e+00
	-1.000000000000000e-03

 23	2.300000000000001e-01
	2.300000000000001e-01
	-7.699999999999999e-01
	-1.770000000000000e+00
	-1.000000000000000e-03

 24	2.400000000000001e-01
	2.400000000000001e-01
	-7.599999999999999e-01
	-1.760000000000000e+00
	-1.000000000000000e-03

 25	2.500000000000001e-01
	2.500000000000001e-01
	-7.500000000000000e-01
	-1.750000000000000e+00
	-1.000000000000000e-03

 26	2.600000000000001e-01
	2.600000000000001e-01
	-7.400000000000000e-01
	-1.740000000000000e+00
	-1.000000000000000e-03

 27	2.700000000000001e-01
	2.700000000000001e-01
	-7.300000000000000e-01
	-1.730000000000000e+00
	-1.000000000000000e-03

 28	2.800000000000001e-01
	2.800000000000001e-01
	-7.200000000000000e-01
	-1.720000000000000e+00
	-1.000000000000000e-03

 29	2.900000000000001e-01
	2.900000000000001e-01
	-7.100000000000000e-01
	-1.710000000000000e+00
	-1.000000000000000e-03

 30	3.000000000000001e-01
	3.000000000000001e-01
	-6.999999999999998e-01
	-1.700000000000000e+00
	-1.000000000000000e-03

 31	3.100000000000001e-01
	3.100000000000001e-01
	-6.899999999999998e-01
	-1.690000000000000e+00
	-1.000000000000000e-03

 32	3.200000000000001e-01
	3.200000000000001e-01
	-6.799999999999998e-01
	-1.680000000000000e+00
	-1.000000000000000e-03

 33	3.300000000000001e-01
	3.300000000000001e-01
	-6.699999999999999e-01
	-1.670000000000000e+00
	-1.000000000000000e-03

 34	3.400000000000001e-01
	3.400000000000001e-01
	-6.599999999999999e-01
	-1.660000000000000e+00
	-1.000000000000000e-03

 35	3.500000000000001e-01
	3.500000000000001e-01
	-6.499999999999999e-01
	-1.650000000000000e+00
	-1.000000000000000e-03

 36	3.600000000000002e-01
	3.600000000000002e-01
	-6.399999999999998e-01
	-1.640000000000000e+00
	-1.000000000000000e-03

 37	3.700000000000002e-01
	3.700000000000002e-01
	-6.299999999999999e-01
	-1.630000000000000e+00
	-1.000000000000000e-03

 38	3.800000000000002e-01
	3.800000000000002e-01
	-6.199999999999999e-01
	-1.620000000000000e+00
	-1.000000000000000e-03

 39	3.900000000000002e-01
	3.900000000000002e-01
	-6.099999999999999e-01
	-1.610000000000000e+00
	-1.000000000000000e-03

 40	4.000000000000002e-01
	4.000000000000002e-01
	-5.999999999999999e-01
	-1.600000000000000e+00
	-1.000000000000000e-03

 41	4.100000000000002e-01
	4.100000000000002e-01
	-5.899999999999999e-01
	-1.590000000000000e+00
	-1.000000000000000e-03

 42	4.200000000000002e-01
	4.200000000000002e-01
	-5.799999999999997e-01
	-1.580000000000000e+00
	-1.000000000000000e-03

 43	4.300000000000002e-01
	4.300000000000002e-01
	-5.699999999999997e-01
	-1.570000000000000e+00
	-1.000000000000000e-03

 44	4.400000000000002e-01
	4.400000000000002e-01
	-5.599999999999997e-01
	-1.560000000000000e+00
	-1.000000000000000e-03

 45	4.500000000000002e-01
	4.500000000000002e-01
	-5.499999999999997e-01
	-1.550000000000000e+00
	-1.000000000000000e-03

 46	4.600000000000002e-01
	4.600000000000002e-01
	-5.399999999999998e-01
	-1.540000000000000e+00
	-1.000000000000000e-03

 47	4.700000000000003e-01
	4.700000000000003e-01
	-5.299999999999998e-01
	-1.530000000000000e+00
	-1.000000000000000e-03

 48	4.800000000000003e-01
	4.800000000000003e-01
	-5.199999999999997e-01
	-1.520000000000000e+00
	-1.000000000000000e-03

 49	4.900000000000003e-01
	4.900000000000003e-01
	-5.099999999999997e-01
	-1.510000000000000e+00
	-1.000000000000000e-03

 50	5.000000000000002e-01
	5.000000000000002e-01
	-4.999999999999998e-01
	-1.500000000000000e+00
	-1.000000000000000e-03

 51	5.100000000000002e-01
	5.100000000000002e-01
	-4.899999999999998e-01
	-1.490000000000000e+00
	-1.000000000000000e-03

 52	5.200000000000002e-01
	5.200000000000002e-01
	-4.799999999999998e-01
	-1.480000000000000e+00
	-1.000000000000000e-03

 53	5.300000000000002e-01
	5.300000000000002e-01
	-4.699999999999997e-01
	-1.470000000000000e+00
	-1.000000000000000e-03

 54	5.400000000000003e-01
	5.400000000000003e-01
	-4.599999999999998e-01
	-1.460000000000000e+00
	-1.000000000000000e-03

 55	5.500000000000003e-01
	5.500000000000003e-01
	-4.499999999999998e-01
	-1.450000000000000e+00
	-1.000000000000000e-03

 56	5.600000000000003e-01
	5.600000000000003e-01
	-4.399999999999997e-01
	-1.440000000000000e+00
	-1.000000000000000e-03

 57	5.700000000000003e-01
	5.700000000000003e-01
	-4.299999999999997e-01
	-1.430000000000000e+00
	-1.000000000000000e-03

 58	5.800000000000003e-01
	5.800000000000003e-01
	-4.199999999999997e-01
	-1.420000000000000e+00
	-1.000000000000000e-03

 59	5.900000000000003e-01
	5.900000000000003e-01
	-4.099999999999996e-01
	-1.410000000000000e+00
	-1.000000000000000e-03

 60	6.000000000000003e-01
	6.000000000000003e-01
	-3.999999999999997e-01
	-1.400000000000000e+00
	-1.000000000000000e-03

 61	6.100000000000003e-01
	6.100000000000003e-01
	-3.899999999999997e-01
	-1.390000000000000e+00
	-1.000000000000000e-03

 62	6.200000000000003e-01
	6.200000000000003e-01
	-3.799999999999997e-01
	-1.380000000000000e+00
	-1.000000000000000e-03

 63	6.300000000000003e-01
	6.300000000000003e-01
	-3.699999999999997e-01
	-1.370000000000000e+00
	-1.000000000000000e-03

 64	6.400000000000003e-01
	6.400000000000003e-01
	-3.599999999999997e-01
	-1.360000000000000e+00
	-1.000000000000000e-03

 65	6.500000000000004e-01
	6.500000000000004e-01
	-3.499999999999996e-01
	-1.350000000000000e+00
	-1.000000000000000e-03

 66	6.600000000000004e-01
	6.600000000000004e-01
	-3.399999999999996e-01
	-1.340000000000000e+00
	-1.000000000000000e-03

 67	6.700000000000004e-01
	6.700000000000004e-01
	-3.299999999999997e-01
	-1.330000000000000e+00
	-1.000000000000000e-03

 68	6.800000000000004e-01
	6.800000000000004e-01
	-3.199999999999997e-01
	-1.320000000000000e+00
	-1.000000000000000e-03

 69	6.900000000000004e-01
	6.900000000000004e-01
	-3.099999999999996e-01
	-1.310000000000000e+00
	-1.000000000000000e-03

 70	7.000000000000004e-01
	7.000000000000004e-01
	-2.999999999999996e-01
	-1.300000000000000e+00
	-1.000000000000000e-03

 71	7.100000000000004e-01
	7.100000000000004e-01
	-2.899999999999996e-01
	-1.290000000000000e+00
	-1.000000000000000e-03

 72	7.200000000000004e-01
	7.200000000000004e-01
	-2.799999999999995e-01
	-1.280000000000000e+00
	-1.000000000000000e-03

 73	7.300000000000004e-01
	7.300000000000004e-01
	-2.699999999999996e-01
	-1.270000000000000e+00
	-1.000000000000000e-03

 74	7.400000000000004e-01
	7.400000000000004e-01
	-2.599999999999996e-01
	-1.260000000000000e+00
	-1.000000000000000e-03

 75	7.500000000000004e-01
	7.500000000000004e-01
	-2.499999999999996e-01
	-1.250000000000000e+00
	-1.000000000000000e-03

 76	7.600000000000005e-01
	7.600000000000005e-01
	-2.399999999999995e-01
	-1.240000000000000e+00
	-1.000000000000000e-03

 77	7.700000000000005e-01
	7.700000000000005e-01
	-2.299999999999995e-01
	-1.230000000000000e+00
	-1.000000000000000e-03

 78	7.800000000000005e-01
	7.800000000000005e-01
	-2.199999999999995e-01
	-1.220000000000000e+00
	-1.000000000000000e-03

 79	7.900000000000005e-01
	7.900000000000005e-01
	-2.099999999999996e-01
	-1.210000000000000e+00
	-1.000000000000000e-03

 80	8.000000000000005e-01
	8.000000000000005e-01
	-1.999999999999995e-01
	-1.200000000000000e+00
	-1.000000000000000e-03

 81	8.100000000000005e-01
	8.100000000000005e-01
	-1.899999999999995e-01
	-1.190000000000000e+00
	-1.000000000000000e-03

 82	8.200000000000005e-01
	8.200000000000005e-01
	-1.799999999999995e-01
	-1.179999999999999e+00
	-1.000000000000000e-03

 83	8.300000000000005e-01
	8.300000000000005e-01
	-1.699999999999995e-01
	-1.169999999999999e+00
	-1.000000000000000e-03

 84	8.400000000000005e-01
	8.400000000000005e-01
	-1.599999999999994e-01
	-1.159999999999999e+00
	-1.000000000000000e-03

 85	8.500000000000005e-01
	8.500000000000005e-01
	-1.499999999999994e-01
	-1.149999999999999e+00
	-1.000000000000000e-03

 86	8.600000000000005e-01
	8.600000000000005e-01
	-1.399999999999995e-01
	-1.139999999999999e+00
	-1.000000000000000e-03

 87	8.700000000000006e-01
	8.700000000000006e-01
	-1.299999999999995e-01
	-1.129999999999999e+00
	-1.000000000000000e-03

 88	8.800000000000006e-01
	8.800000000000006e-01
	-1.199999999999994e-01
	-1.119999999999999e+00
	-1.000000000000000e-03

 89	8.900000000000006e-01
	8.900000000000006e-01
	-1.099999999999994e-01
	-1.109999999999999e+00
	-1.000000000000000e-03

 90	9.000000000000006e-01
	9.000000000000006e-01
	-9.999999999999939e-02
	-1.099999999999999e+00
	-1.000000000000000e-03

 91	9.100000000000006e-01
	9.100000000000006e-01
	-8.999999999999937e-02
	-1.089999999999999e+00
	-1.000000000000000e-03

 92	9.200000000000006e-01
	9.200000000000006e-01
	-7.999999999999945e-02
	-1.079999999999999e+00
	-1.000000000000000e-03

 93	9.300000000000006e-01
	9.300000000000006e-01
	-6.999999999999942e-02
	-1.069999999999999e+00
	-1.000000000000000e-03

 94	9.400000000000006e-01
	9.400000000000006e-01
	-5.999999999999940e-02
	-1.059999999999999e+00
	-1.000000000000000e-03

 95	9.500000000000006e-01
	9.500000000000006e-01
	-4.999999999999937e-02
	-1.049999999999999e+00
	-1.000000000000000e-03

 96	9.600000000000006e-01
	9.600000000000006e-01
	-3.999999999999935e-02
	-1.039999999999999e+00
	-1.000000000000000e-03

 97	9.700000000000006e-01
	9.700000000000006e-01
	-2.999999999999932e-02
	-1.029999999999999e+00
	-1.000000000000000e-03

 98	9.800000000000006e-01
	9.800000000000006e-01
	-1.999999999999940e-02
	-1.019999999999999e+00
	-1.000000000000000e-03

 99	9.900000000000007e-01
	9.900000000000007e-01
	-9.999999999999376e-03
	-1.009999999999999e+00
	-1.000000000000000e-03

 100	1.000000000000001e+00
	1.000000000000001e+00
	6.505213034913027e-16
	-9.999999999999993e-01
	-1.000000000000000e-03

 101	1.010000000000001e+00
	1.010000000000001e+00
	1.000000000000068e-02
	-9.899999999999993e-01
	-1.000000000000000e-03

 102	1.020000000000001e+00
	1.020000000000001e+00
	2.000000000000070e-02
	-9.799999999999993e-01
	-1.000000000000000e-03

 103	1.030000000000001e+00
	1.030000000000001e+00
	3.000000000000073e-02
	-9.699999999999993e-01
	-1.000000000000000e-03

 104	1.040000000000001e+00
	1.040000000000001e+00
	4.000000000000076e-02
	-9.599999999999993e-01
	-1.000000000000000e-03

 105	1.050000000000001e+00
	1.050000000000001e+00
	5.000000000000078e-02
	-9.499999999999992e-01
	-1.000000000000000e-03

 106	1.060000000000001e+00
	1.060000000000001e+00
	6.000000000000081e-02
	-9.399999999999992e-01
	-1.000000000000000e-03

 107	1.070000000000001e+00
	1.070000000000001e+00
	7.000000000000084e-02
	-9.299999999999992e-01
	-1.000000000000000e-03

 108	1.080000000000001e+00
	1.080000000000001e+00
	8.000000000000064e-02
	-9.199999999999994e-01
	-1.000000000000000e-03

 109	1.090000000000001e+00
	1.090000000000001e+00
	9.000000000000066e-02
	-9.099999999999994e-01
	-1.000000000000000e-03

 110	1.100000000000001e+00
	1.100000000000001e+00
	1.000000000000007e-01
	-8.999999999999992e-01
	-1.000000000000000e-03

 111	1.110000000000001e+00
	1.110000000000001e+00
	1.100000000000007e-01
	-8.899999999999992e-01
	-1.000000000000000e-03

 112	1.120000000000001e+00
	1.120000000000001e+00
	1.200000000000007e-01
	-8.799999999999992e-01
	-1.000000000000000e-03

 113	1.130000000000001e+00
	1.130000000000001e+00
	1.300000000000008e-01
	-8.699999999999992e-01
	-1.000000000000000e-03

 114	1.140000000000001e+00
	1.140000000000001e+00
	1.400000000000008e-01
	-8.599999999999992e-01
	-1.000000000000000e-03

 115	1.150000000000001e+00
	1.150000000000001e+00
	1.500000000000008e-01
	-8.499999999999992e-01
	-1.000000000000000e-03

 116	1.160000000000001e+00
	1.160000000000001e+00
	1.600000000000009e-01
	-8.399999999999992e-01
	-1.000000000000000e-03

 117	1.170000000000001e+00
	1.170000000000001e+00
	1.700000000000009e-01
	-8.299999999999992e-01
	-1.000000000000000e-03

 118	1.180000000000001e+00
	1.180000000000001e+00
	1.800000000000009e-01
	-8.199999999999991e-01
	-1.000000000000000e-03

 119	1.190000000000001e+00
	1.190000000000001e+00
	1.900000000000009e-01
	-8.099999999999991e-01
	-1.000000000000000e-03

 120	1.200000000000001e+00
	1.200000000000001e+00
	2.000000000000007e-01
	-7.999999999999993e-01
	-1.000000000000000e-03

 121	1.210000000000001e+00
	1.210000000000001e+00
	2.100000000000008e-01
	-7.899999999999993e-01
	-1.000000000000000e-03

 122	1.220000000000001e+00
	1.220000000000001e+00
	2.200000000000008e-01
	-7.799999999999991e-01
	-1.000000000000000e-03

 123	1.230000000000001e+00
	1.230000000000001e+00
	2.300000000000008e-01
	-7.699999999999991e-01
	-1.000000000000000e-03

 124	1.240000000000001e+00
	1.240000000000001e+00
	2.400000000000009e-01
	-7.599999999999991e-01
	-1.000000000000000e-03

 125	1.250000000000001e+00
	1.250000000000001e+00
	2.500000000000009e-01
	-7.499999999999991e-01
	-1.000000000000000e-03

 126	1.260000000000001e+00
	1.260000000000001e+00
	2.600000000000009e-01
	-7.399999999999991e-01
	-1.000000000000000e-03

 127	1.270000000000001e+00
	1.270000000000001e+00
	2.700000000000009e-01
	-7.299999999999991e-01
	-1.000000000000000e-03

 128	1.280000000000001e+00
	1.280000000000001e+00
	2.800000000000010e-01
	-7.199999999999991e-01
	-1.000000000000000e-03

 129	1.290000000000001e+00
	1.290000000000001e+00
	2.900000000000010e-01
	-7.099999999999991e-01
	-1.000000000000000e-03

 130	1.300000000000001e+00
	1.300000000000001e+00
	3.000000000000010e-01
	-6.999999999999991e-01
	-1.000000000000000e-03

 131	1.310000000000001e+00
	1.310000000000001e+00
	3.100000000000011e-01
	-6.899999999999989e-01
	-1.000000000000000e-03

 132	1.320000000000001e+00
	1.320000000000001e+00
	3.200000000000011e-01
	-6.799999999999989e-01
	-1.000000000000000e-03

 133	1.330000000000001e+00
	1.330000000000001e+00
	3.300000000000008e-01
	-6.699999999999992e-01
	-1.000000000000000e-03

 134	1.340000000000001e+00
	1.340000000000001e+00
	3.400000000000009e-01
	-6.599999999999990e-01
	-1.000000000000000e-03

 135	1.350000000000001e+00
	1.350000000000001e+00
	3.500000000000009e-01
	-6.499999999999990e-01
	-1.000000000000000e-03

 136	1.360000000000001e+00
	1.360000000000001e+00
	3.600000000000009e-01
	-6.399999999999990e-01
	-1.000000000000000e-03

 137	1.370000000000001e+00
	1.370000000000001e+00
	3.700000000000010e-01
	-6.299999999999990e-01
	-1.000000000000000e-03

 138	1.380000000000001e+00
	1.380000000000001e+00
	3.800000000000010e-01
	-6.199999999999990e-01
	-1.000000000000000e-03

 139	1.390000000000001e+00
	1.390000000000001e+00
	3.900000000000010e-01
	-6.099999999999990e-01
	-1.000000000000000e-03

 140	1.400000000000001e+00
	1.400000000000001e+00
	4.000000000000010e-01
	-5.999999999999990e-01
	-1.000000000000000e-03

 141	1.410000000000001e+00
	1.410000000000001e+00
	4.100000000000011e-01
	-5.899999999999990e-01
	-1.000000000000000e-03

 142	1.420000000000001e+00
	1.420000000000001e+00
	4.200000000000011e-01
	-5.799999999999990e-01
	-1.000000000000000e-03

 143	1.430000000000001e+00
	1.430000000000001e+00
	4.300000000000011e-01
	-5.699999999999990e-01
	-1.000000000000000e-03

 144	1.440000000000001e+00
	1.440000000000001e+00
	4.400000000000012e-01
	-5.599999999999988e-01
	-1.000000000000000e-03

 145	1.450000000000001e+00
	1.450000000000001e+00
	4.500000000000012e-01
	-5.499999999999988e-01
	-1.000000000000000e-03

 146	1.460000000000001e+00
	1.460000000000001e+00
	4.600000000000010e-01
	-5.399999999999990e-01
	-1.000000000000000e-03

 147	1.470000000000001e+00
	1.470000000000001e+00
	4.700000000000010e-01
	-5.299999999999989e-01
	-1.000000000000000e-03

 148	1.480000000000001e+00
	1.480000000000001e+00
	4.800000000000010e-01
	-5.199999999999989e-01
	-1.000000000000000e-03

 149	1.490000000000001e+00
	1.490000000000001e+00
	4.900000000000010e-01
	-5.099999999999989e-01
	-1.000000000000000e-03

 150	1.500000000000001e+00
	1.500000000000001e+00
	5.000000000000011e-01
	-4.999999999999989e-01
	-1.000000000000000e-03

 151	1.510000000000001e+00
	1.510000000000001e+00
	5.100000000000011e-01
	-4.899999999999989e-01
	-1.000000000000000e-03

 152	1.520000000000001e+00
	1.520000000000001e+00
	5.200000000000011e-01
	-4.799999999999989e-01
	-1.000000000000000e-03

 153	1.530000000000001e+00
	1.530000000000001e+00
	5.300000000000011e-01
	-4.699999999999989e-01
	-1.000000000000000e-03

 154	1.540000000000001e+00
	1.540000000000001e+00
	5.400000000000011e-01
	-4.599999999999989e-01
	-1.000000000000000e-03

 155	1.550000000000001e+00
	1.550000000000001e+00
	5.500000000000013e-01
	-4.499999999999987e-01
	-1.000000000000000e-03

 156	1.560000000000001e+00
	1.560000000000001e+00
	5.600000000000013e-01
	-4.399999999999987e-01
	-1.000000000000000e-03

 157	1.570000000000001e+00
	1.570000000000001e+00
	5.700000000000013e-01
	-4.299999999999987e-01
	-1.000000000000000e-03

 158	1.580000000000001e+00
	1.580000000000001e+00
	5.800000000000011e-01
	-4.199999999999989e-01
	-1.000000000000000e-03

 159	1.590000000000001e+00
	1.590000000000001e+00
	5.900000000000011e-01
	-4.099999999999989e-01
	-1.000000000000000e-03

 160	1.600000000000001e+00
	1.600000000000001e+00
	6.000000000000011e-01
	-3.999999999999989e-01
	-1.000000000000000e-03

 161	1.610000000000001e+00
	1.610000000000001e+00
	6.100000000000012e-01
	-3.899999999999988e-01
	-1.000000000000000e-03

 162	1.620000000000001e+00
	1.620000000000001e+00
	6.200000000000012e-01
	-3.799999999999988e-01
	-1.000000000000000e-03

 163	1.630000000000001e+00
	1.630000000000001e+00
	6.300000000000012e-01
	-3.699999999999988e-01
	-1.000000000000000e-03

 164	1.640000000000001e+00
	1.640000000000001e+00
	6.400000000000012e-01
	-3.599999999999988e-01
	-1.000000000000000e-03

 165	1.650000000000001e+00
	1.650000000000001e+00
	6.500000000000012e-01
	-3.499999999999988e-01
	-1.000000000000000e-03

 166	1.660000000000001e+00
	1.660000000000001e+00
	6.600000000000013e-01
	-3.399999999999987e-01
	-1.000000000000000e-03

 167	1.670000000000001e+00
	1.670000000000001e+00
	6.700000000000014e-01
	-3.299999999999986e-01
	-1.000000000000000e-03

 168	1.680000000000001e+00
	1.680000000000001e+00
	6.800000000000014e-01
	-3.199999999999986e-01
	-1.000000000000000e-03

 169	1.690000000000001e+00
	1.690000000000001e+00
	6.900000000000014e-01
	-3.099999999999986e-01
	-1.000000000000000e-03

 170	1.700000000000001e+00
	1.700000000000001e+00
	7.000000000000014e-01
	-2.999999999999986e-01
	-1.000000000000000e-03

 171	1.710000000000001e+00
	1.710000000000001e+00
	7.100000000000012e-01
	-2.899999999999988e-01
	-1.000000000000000e-03

 172	1.720000000000001e+00
	1.720000000000001e+00
	7.200000000000012e-01
	-2.799999999999988e-01
	-1.000000000000000e-03

 173	1.730000000000001e+00
	1.730000000000001e+00
	7.300000000000013e-01
	-2.699999999999987e-01
	-1.000000000000000e-03

 174	1.740000000000001e+00
	1.740000000000001e+00
	7.400000000000013e-01
	-2.599999999999987e-01
	-1.000000000000000e-03

 175	1.750000000000001e+00
	1.750000000000001e+00
	7.500000000000013e-01
	-2.499999999999987e-01
	-1.000000000000000e-03

 176	1.760000000000001e+00
	1.760000000000001e+00
	7.600000000000013e-01
	-2.399999999999987e-01
	-1.000000000000000e-03

 177	1.770000000000001e+00
	1.770000000000001e+00
	7.700000000000014e-01
	-2.299999999999986e-01
	-1.000000000000000e-03

 178	1.780000000000001e+00
	1.780000000000001e+00
	7.800000000000014e-01
	-2.199999999999986e-01
	-1.000000000000000e-03

 179	1.790000000000001e+00
	1.790000000000001e+00
	7.900000000000014e-01
	-2.099999999999986e-01
	-1.000000000000000e-03

 180	1.800000000000001e+00
	1.800000000000001e+00
	8.000000000000015e-01
	-1.999999999999985e-01
	-1.000000000000000e-03

 181	1.810000000000001e+00
	1.810000000000001e+00
	8.100000000000015e-01
	-1.899999999999985e-01
	-1.000000000000000e-03

 182	1.820000000000001e+00
	1.820000000000001e+00
	8.200000000000015e-01
	-1.799999999999985e-01
	-1.000000000000000e-03

 183	1.830000000000001e+00
	1.830000000000001e+00
	8.300000000000015e-01
	-1.699999999999985e-01
	-1.000000000000000e-03

 184	1.840000000000001e+00
	1.840000000000001e+00
	8.400000000000013e-01
	-1.599999999999987e-01
	-1.000000000000000e-03

 185	1.850000000000001e+00
	1.850000000000001e+00
	8.500000000000013e-01
	-1.499999999999987e-01
	-1.000000000000000e-03

 186	1.860000000000001e+00
	1.860000000000001e+00
	8.600000000000014e-01
	-1.399999999999986e-01
	-1.000000000000000e-03

 187	1.870000000000001e+00
	1.870000000000001e+00
	8.700000000000014e-01
	-1.299999999999986e-01
	-1.000000000000000e-03

 188	1.880000000000001e+00
	1.880000000000001e+00
	8.800000000000014e-01
	-1.199999999999986e-01
	-1.000000000000000e-03

 189	1.890000000000001e+00
	1.890000000000001e+00
	8.900000000000015e-01
	-1.099999999999985e-01
	-1.000000000000000e-03

 190	1.900000000000001e+00
	1.900000000000001e+00
	9.000000000000015e-01
	-9.999999999999853e-02
	-1.000000000000000e-03

 191	1.910000000000001e+00
	1.910000000000001e+00
	9.100000000000015e-01
	-8.999999999999853e-02
	-1.000000000000000e-03

 192	1.920000000000001e+00
	1.920000000000001e+00
	9.200000000000016e-01
	-7.999999999999841e-02
	-1.000000000000000e-03

 193	1.930000000000001e+00
	1.930000000000001e+00
	9.300000000000016e-01
	-6.999999999999840e-02
	-1.000000000000000e-03

 194	1.940000000000002e+00
	1.940000000000002e+00
	9.400000000000016e-01
	-5.999999999999839e-02
	-1.000000000000000e-03

 195	1.950000000000002e+00
	1.950000000000002e+00
	9.500000000000016e-01
	-4.999999999999838e-02
	-1.000000000000000e-03

 196	1.960000000000002e+00
	1.960000000000002e+00
	9.600000000000016e-01
	-3.999999999999837e-02
	-1.000000000000000e-03

 197	1.970000000000002e+00
	1.970000000000002e+00
	9.700000000000016e-01
	-2.999999999999836e-02
	-1.000000000000000e-03

 198	1.980000000000002e+00
	1.980000000000002e+00
	9.800000000000018e-01
	-1.999999999999824e-02
	-1.000000000000000e-03

 199	1.990000000000002e+00
	1.990000000000002e+00
	9.900000000000018e-01
	-9.999999999998233e-03
	-1.000000000000000e-03

 200	2.000000000000001e+00
	2.000000000000001e+00
	1.000000000000001e+00
	1.332267629550188e-15
	-1.000000000000000e-03

 201	2.010000000000001e+00
	2.010000000000001e+00
	1.010000000000001e+00
	1.000000000000134e-02
	-1.000000000000000e-03

 202	2.020000000000001e+00
	2.020000000000001e+00
	1.020000000000001e+00
	2.000000000000091e-02
	-1.000000000000000e-03

 203	2.030000000000001e+00
	2.030000000000001e+00
	1.030000000000000e+00
	3.000000000000047e-02
	-1.000000000000000e-03

 204	2.040000000000000e+00
	2.040000000000000e+00
	1.040000000000000e+00
	4.000000000000048e-02
	-1.000000000000000e-03

 205	2.050000000000000e+00
	2.050000000000000e+00
	1.050000000000000e+00
	5.000000000000004e-02
	-1.000000000000000e-03

 206	2.060000000000000e+00
	2.060000000000000e+00
	1.060000000000000e+00
	6.000000000000028e-02
	-9.999999999999998e-04

 207	2.070000000000000e+00
	2.070000000000000e+00
	1.070000000000000e+00
	6.999999999999984e-02
	-1.000000000000000e-03

 208	2.080000000000000e+00
	2.080000000000000e+00
	1.080000000000000e+00
	7.999999999999985e-02
	-1.000000000000000e-03

 209	2.089999999999999e+00
	2.089999999999999e+00
	1.089999999999999e+00
	8.999999999999941e-02
	-1.000000000000000e-03

 210	2.099999999999999e+00
	2.099999999999999e+00
	1.099999999999999e+00
	9.999999999999942e-02
	-1.000000000000000e-03

 211	2.109999999999999e+00
	2.109999999999999e+00
	1.109999999999999e+00
	1.099999999999990e-01
	-1.000000000000000e-03

 212	2.119999999999999e+00
	2.119999999999999e+00
	1.119999999999999e+00
	1.199999999999986e-01
	-1.000000000000000e-03

 213	2.129999999999999e+00
	2.129999999999999e+00
	1.129999999999999e+00
	1.299999999999986e-01
	-1.000000000000000e-03

 214	2.139999999999998e+00
	2.139999999999998e+00
	1.139999999999998e+00
	1.399999999999981e-01
	-1.000000000000000e-03

 215	2.149999999999998e+00
	2.149999999999998e+00
	1.149999999999998e+00
	1.499999999999981e-01
	-1.000000000000000e-03

 216	2.159999999999998e+00
	2.159999999999998e+00
	1.159999999999998e+00
	1.599999999999979e-01
	-1.000000000000000e-03

 217	2.169999999999998e+00
	2.169999999999998e+00
	1.169999999999998e+00
	1.699999999999979e-01
	-1.000000000000000e-03

 218	2.179999999999997e+00
	2.179999999999997e+00
	1.179999999999997e+00
	1.799999999999975e-01
	-1.000000000000000e-03

 219	2.189999999999997e+00
	2.189999999999997e+00
	1.189999999999998e+00
	1.899999999999975e-01
	-1.000000000000000e-03

 220	2.199999999999997e+00
	2.199999999999997e+00
	1.199999999999997e+00
	1.999999999999971e-01
	-1.000000000000000e-03

 221	2.209999999999997e+00
	2.209999999999997e+00
	1.209999999999997e+00
	2.099999999999966e-01
	-1.000000000000000e-03

 222	2.219999999999997e+00
	2.219999999999997e+00
	1.219999999999997e+00
	2.199999999999966e-01
	-1.000000000000000e-03

 223	2.229999999999996e+00
	2.229999999999996e+00
	1.229999999999996e+00
	2.299999999999962e-01
	-1.000000000000000e-03

 224	2.239999999999996e+00
	2.239999999999996e+00
	1.239999999999996e+00
	2.399999999999962e-01
	-1.000000000000000e-03

 225	2.249999999999996e+00
	2.249999999999996e+00
	1.249999999999996e+00
	2.499999999999960e-01
	-9.999999999999998e-04

 226	2.259999999999996e+00
	2.259999999999996e+00
	1.259999999999996e+00
	2.599999999999960e-01
	-1.000000000000000e-03

 227	2.269999999999996e+00
	2.269999999999996e+00
	1.269999999999996e+00
	2.699999999999956e-01
	-1.000000000000000e-03

 228	2.279999999999995e+00
	2.279999999999995e+00
	1.279999999999996e+00
	2.799999999999956e-01
	-1.000000000000000e-03

 229	2.289999999999995e+00
	2.289999999999995e+00
	1.289999999999995e+00
	2.899999999999952e-01
	-1.000000000000000e-03

 230	2.299999999999995e+00
	2.299999999999995e+00
	1.299999999999995e+00
	2.999999999999952e-01
	-1.000000000000000e-03

 231	2.309999999999995e+00
	2.309999999999995e+00
	1.309999999999995e+00
	3.099999999999947e-01
	-1.000000000000000e-03

 232	2.319999999999995e+00
	2.319999999999995e+00
	1.319999999999994e+00
	3.199999999999943e-01
	-1.000000000000000e-03

 233	2.329999999999994e+00
	2.329999999999994e+00
	1.329999999999994e+00
	3.299999999999943e-01
	-1.000000000000000e-03

 234	2.339999999999994e+00
	2.339999999999994e+00
	1.339999999999994e+00
	3.399999999999941e-01
	-9.999999999999998e-04

 235	2.349999999999994e+00
	2.349999999999994e+00
	1.349999999999994e+00
	3.499999999999941e-01
	-9.999999999999998e-04

 236	2.359999999999994e+00
	2.359999999999994e+00
	1.359999999999994e+00
	3.599999999999937e-01
	-1.000000000000000e-03

 237	2.369999999999993e+00
	2.369999999999993e+00
	1.369999999999994e+00
	3.699999999999937e-01
	-1.000000000000000e-03

 238	2.379999999999993e+00
	2.379999999999993e+00
	1.379999999999993e+00
	3.799999999999932e-01
	-1.000000000000000e-03

 239	2.389999999999993e+00
	2.389999999999993e+00
	1.389999999999993e+00
	3.899999999999932e-01
	-1.000000000000000e-03

 240	2.399999999999993e+00
	2.399999999999993e+00
	1.399999999999993e+00
	3.999999999999928e-01
	-1.000000000000000e-03

 241	2.409999999999993e+00
	2.409999999999993e+00
	1.409999999999992e+00
	4.099999999999924e-01
	-1.000000000000000e-03

 242	2.419999999999992e+00
	2.419999999999992e+00
	1.419999999999992e+00
	4.199999999999924e-01
	-1.000000000000000e-03

 243	2.429999999999992e+00
	2.429999999999992e+00
	1.429999999999992e+00
	4.299999999999919e-01
	-1.000000000000000e-03

 244	2.439999999999992e+00