Title: * simulation de rc2
Date: Tue May 10 19:38:12  2022
Plotname: Integrated Noise
Flags: real
No. Variables: 2
No. Points: 1
Variables:
	0	v(onoise_total)	voltage
	1	v(inoise_total)	voltage
Values:
 0	0.000000000000000e+00
	0.000000000000000e+00

