Title: * simulation de rc2
Date: Tue May 10 19:38:12  2022
Plotname: AC Analysis
Flags: complex
No. Variables: 4
No. Points: 201
Variables:
	0	frequency	frequency grid=3
	1	v(ac.v(n0))	voltage
	2	v(ac.v(n1))	voltage
	3	v(ac.v(n2))	voltage
Values:
 0	1.000000000000000e+04,0.000000000000000e+00
	1.000000000000000e+00,0.000000000000000e+00
	9.807767381187177e-01,-1.225239116604406e-01
	9.692518806526658e-01,-1.834238034151707e-01

 1	1.023292992280754e+04,0.000000000000000e+00
	1.000000000000000e+00,0.000000000000000e+00
	9.798955340578281e-01,-1.252306066780722e-01
	9.678428194306468e-01,-1.874584429935792e-01

 2	1.047128548050900e+04,0.000000000000000e+00
	1.000000000000000e+00,0.000000000000000e+00
	9.789751201429089e-01,-1.279902168075898e-01
	9.663711040860118e-01,-1.915706970265206e-01

 3	1.071519305237606e+04,0.000000000000000e+00
	1.000000000000000e+00,0.000000000000000e+00
	9.780138624123669e-01,-1.308032969828329e-01
	9.648341278922719e-01,-1.957612790790425e-01

 4	1.096478196143185e+04,0.000000000000000e+00
	1.000000000000000e+00,0.000000000000000e+00
	9.770100691342141e-01,-1.336703720430782e-01
	9.632291923869015e-01,-2.000308498782545e-01

 5	1.122018454301963e+04,0.000000000000000e+00
	1.000000000000000e+00,0.000000000000000e+00
	9.759619897428122e-01,-1.365919335702663e-01
	9.615535057320155e-01,-2.043800121100028e-01

 6	1.148153621496882e+04,0.000000000000000e+00
	1.000000000000000e+00,0.000000000000000e+00
	9.748678138587435e-01,-1.395684365434993e-01
	9.598041812132809e-01,-2.088093049186390e-01

 7	1.174897554939529e+04,0.000000000000000e+00
	1.000000000000000e+00,0.000000000000000e+00
	9.737256704050099e-01,-1.426002958056298e-01
	9.579782358985970e-01,-2.133191981015309e-01

 8	1.202264434617413e+04,0.000000000000000e+00
	1.000000000000000e+00,0.000000000000000e+00
	9.725336268338565e-01,-1.456878823372279e-01
	9.560725894798492e-01,-2.179100859907147e-01

 9	1.230268770812381e+04,0.000000000000000e+00
	1.000000000000000e+00,0.000000000000000e+00
	9.712896884796126e-01,-1.488315193337548e-01
	9.540840633228245e-01,-2.225822810149750e-01

 10	1.258925411794167e+04,0.000000000000000e+00
	1.000000000000000e+00,0.000000000000000e+00
	9.699917980540950e-01,-1.520314780824388e-01
	9.520093797522517e-01,-2.273360069367201e-01

 11	1.288249551693133e+04,0.000000000000000e+00
	1.000000000000000e+00,0.000000000000000e+00
	9.686378353023097e-01,-1.552879736361303e-01
	9.498451616008602e-01,-2.321713917592908e-01

 12	1.318256738556407e+04,0.000000000000000e+00
	1.000000000000000e+00,0.000000000000000e+00
	9.672256168373793e-01,-1.586011602823269e-01
	9.475879320532891e-01,-2.370884603018253e-01

 13	1.348962882591653e+04,0.000000000000000e+00
	1.000000000000000e+00,0.000000000000000e+00
	9.657528961748618e-01,-1.619711268066165e-01
	9.452341148176923e-01,-2.420871264405214e-01

 14	1.380384264602884e+04,0.000000000000000e+00
	1.000000000000000e+00,0.000000000000000e+00
	9.642173639878422e-01,-1.653978915510017e-01
	9.427800346598549e-01,-2.471671850171056e-01

 15	1.412537544622754e+04,0.000000000000000e+00
	1.000000000000000e+00,0.000000000000000e+00
	9.626166486054125e-01,-1.688813972689422e-01
	9.402219183366540e-01,-2.523283034175571e-01

 16	1.445439770745927e+04,0.000000000000000e+00
	1.000000000000000e+00,0.000000000000000e+00
	9.609483167783611e-01,-1.724215057805200e-01
	9.375558959676397e-01,-2.575700128266681e-01

 17	1.479108388168207e+04,0.000000000000000e+00
	1.000000000000000e+00,0.000000000000000e+00
	9.592098747370583e-01,-1.760179924328705e-01
	9.347780028854266e-01,-2.628916991668567e-01

 18	1.513561248436208e+04,0.000000000000000e+00
	1.000000000000000e+00,0.000000000000000e+00
	9.573987695676487e-01,-1.796705403729803e-01
	9.318841820074020e-01,-2.682925937328110e-01

 19	1.548816618912481e+04,0.000000000000000e+00
	1.000000000000000e+00,0.000000000000000e+00
	9.555123909337080e-01,-1.833787346421109e-01
	9.288702867729627e-01,-2.737717635370599e-01

 20	1.584893192461113e+04,0.000000000000000e+00
	1.000000000000000e+00,0.000000000000000e+00
	9.535480731714651e-01,-1.871420561034890e-01
	9.257320846920358e-01,-2.793281013854188e-01

 21	1.621810097358929e+04,0.000000000000000e+00
	1.000000000000000e+00,0.000000000000000e+00
	9.515030977875258e-01,-1.909598752175199e-01
	9.224652615519944e-01,-2.849603157055071e-01

 22	1.659586907437560e+04,0.000000000000000e+00
	1.000000000000000e+00,0.000000000000000e+00
	9.493746963886982e-01,-1.948314456816151e-01
	9.190654263311673e-01,-2.906669201561365e-01

 23	1.698243652461743e+04,0.000000000000000e+00
	1.000000000000000e+00,0.000000000000000e+00
	9.471600540740281e-01,-1.987558979548225e-01
	9.155281168679754e-01,-2.964462230503845e-01

 24	1.737800828749374e+04,0.000000000000000e+00
	1.000000000000000e+00,0.000000000000000e+00
	9.448563133194121e-01,-2.027322326907498e-01
	9.118488063351579e-01,-3.022963166305378e-01

 25	1.778279410038922e+04,0.000000000000000e+00
	1.000000000000000e+00,0.000000000000000e+00
	9.424605783851894e-01,-2.067593141058474e-01
	9.080229105686195e-01,-3.082150662388778e-01

 26	1.819700858609982e+04,0.000000000000000e+00
	1.000000000000000e+00,0.000000000000000e+00
	9.399699202768383e-01,-2.108358633138825e-01
	9.040457962999916e-01,-3.142000994344012e-01

 27	1.862087136662866e+04,0.000000000000000e+00
	1.000000000000000e+00,0.000000000000000e+00
	9.373813822882908e-01,-2.149604516614551e-01
	8.999127903410292e-01,-3.202487951120802e-01

 28	1.905460717963246e+04,0.000000000000000e+00
	1.000000000000000e+00,0.000000000000000e+00
	9.346919861563904e-01,-2.191314941035934e-01
	8.956191897663728e-01,-3.263582726880656e-01

 29	1.949844599758044e+04,0.000000000000000e+00
	1.000000000000000e+00,0.000000000000000e+00
	9.318987388536129e-01,-2.233472426628599e-01
	8.911602731389439e-01,-3.325253814213638e-01

 30	1.995262314968878e+04,0.000000000000000e+00
	1.000000000000000e+00,0.000000000000000e+00
	9.289986400442648e-01,-2.276057800199179e-01
	8.865313128191764e-01,-3.387466899498505e-01

 31	2.041737944669528e+04,0.000000000000000e+00
	1.000000000000000e+00,0.000000000000000e+00
	9.259886902269843e-01,-2.319050132881562e-01
	8.817275883954292e-01,-3.450184761260301e-01

 32	2.089296130854038e+04,0.000000000000000e+00
	1.000000000000000e+00,0.000000000000000e+00
	9.228658995833784e-01,-2.362426680296759e-01
	8.767444012680968e-01,-3.513367172455846e-01

 33	2.137962089502230e+04,0.000000000000000e+00
	1.000000000000000e+00,0.000000000000000e+00
	9.196272975490520e-01,-2.406162825746640e-01
	8.715770904141661e-01,-3.576970807694287e-01

 34	2.187761623949551e+04,0.000000000000000e+00
	1.000000000000000e+00,0.000000000000000e+00
	9.162699431190440e-01,-2.450232027108628e-01
	8.662210493521059e-01,-3.640949156475847e-01

 35	2.238721138568337e+04,0.000000000000000e+00
	1.000000000000000e+00,0.000000000000000e+00
	9.127909358947364e-01,-2.494605768143888e-01
	8.606717443189967e-01,-3.705252443605858e-01

 36	2.290867652767771e+04,0.000000000000000e+00
	1.000000000000000e+00,0.000000000000000e+00
	9.091874278736609e-01,-2.539253514975258e-01
	8.549247336626745e-01,-3.769827558012101e-01

 37	2.344228815319920e+04,0.000000000000000e+00
	1.000000000000000e+00,0.000000000000000e+00
	9.054566359771904e-01,-2.584142678531681e-01
	8.489756884412768e-01,-3.834617991259467e-01

 38	2.398832919019488e+04,0.000000000000000e+00
	1.000000000000000e+00,0.000000000000000e+00
	9.015958553039382e-01,-2.629238583792788e-01
	8.428204142109850e-01,-3.899563787115931e-01

 39	2.454708915685028e+04,0.000000000000000e+00
	1.000000000000000e+00,0.000000000000000e+00
	8.976024730887174e-01,-2.674504446698909e-01
	8.364548739698781e-01,-3.964601503575437e-01

 40	2.511886431509577e+04,0.000000000000000e+00
	1.000000000000000e+00,0.000000000000000e+00
	8.934739833381894e-01,-2.719901359617384e-01
	8.298752122117093e-01,-4.029664188785129e-01

 41	2.570395782768861e+04,0.000000000000000e+00
	1.000000000000000e+00,0.000000000000000e+00
	8.892080021048578e-01,-2.765388286274191e-01
	8.230777800280975e-01,-4.094681372354100e-01

 42	2.630267991895379e+04,0.000000000000000e+00
	1.000000000000000e+00,0.000000000000000e+00
	8.848022833508887e-01,-2.810922067069260e-01
	8.160591611811692e-01,-4.159579073536517e-01

 43	2.691534803926912e+04,0.000000000000000e+00
	1.000000000000000e+00,0.000000000000000e+00
	8.802547353424036e-01,-2.856457435693153e-01
	8.088161990511689e-01,-4.224279827781304e-01

 44	2.754228703338163e+04,0.000000000000000e+00
	1.000000000000000e+00,0.000000000000000e+00
	8.755634375035009e-01,-2.901947047950687e-01
	8.013460243451304e-01,-4.288702733121531e-01

 45	2.818382931264450e+04,0.000000000000000e+00
	1.000000000000000e+00,0.000000000000000e+00
	8.707266576474015e-01,-2.947341523672188e-01
	7.936460834335118e-01,-4.352763517836940e-01

 46	2.884031503126602e+04,0.000000000000000e+00
	1.000000000000000e+00,0.000000000000000e+00
	8.657428694899069e-01,-2.992589502554144e-01
	7.857141671619582e-01,-4.416374630760672e-01

 47	2.951209226666381e+04,0.000000000000000e+00
	1.000000000000000e+00,0.000000000000000e+00
	8.606107703379697e-01,-3.037637714716843e-01
	7.775484399653065e-01,-4.479445355514219e-01

 48	3.019951720402012e+04,0.000000000000000e+00
	1.000000000000000e+00,0.000000000000000e+00
	8.553292988337717e-01,-3.082431066696137e-01
	7.691474690908755e-01,-4.541881949841297e-01

 49	3.090295432513586e+04,0.000000000000000e+00
	1.000000000000000e+00,0.000000000000000e+00
	8.498976526224850e-01,-3.126912743498804e-01
	7.605102537183166e-01,-4.603587811070199e-01

 50	3.162277660168374e+04,0.000000000000000e+00
	1.000000000000000e+00,0.000000000000000e+00
	8.443153058000845e-01,-3.171024327245489e-01
	7.516362537441831e-01,-4.664463668564267e-01

 51	3.235936569296278e+04,0.000000000000000e+00
	1.000000000000000e+00,0.000000000000000e+00
	8.385820259864375e-01,-3.214705932801429e-01
	7.425254179813401e-01,-4.724407803820588e-01

 52	3.311311214825905e+04,0.000000000000000e+00
	1.000000000000000e+00,0.000000000000000e+00
	8.326978908586561e-01,-3.257896360653187e-01
	7.331782115067691e-01,-4.783316298648185e-01

 53	3.388441561392020e+04,0.000000000000000e+00
	1.000000000000000e+00,0.000000000000000e+00
	8.266633039706934e-01,-3.300533267129558e-01
	7.235956418767098e-01,-4.841083311598794e-01

 54	3.467368504525310e+04,0.000000000000000e+00
	1.000000000000000e+00,0.000000000000000e+00
	8.204790096776128e-01,-3.342553351887513e-01
	7.137792839158766e-01,-4.897601382537445e-01

 55	3.548133892335748e+04,0.000000000000000e+00
	1.000000000000000e+00,0.000000000000000e+00
	8.141461069772212e-01,-3.383892562390716e-01
	7.037313027781482e-01,-4.952761764928157e-01

 56	3.630780547701006e+04,0.000000000000000e+00
	1.000000000000000e+00,0.000000000000000e+00
	8.076660620780850e-01,-3.424486314900300e-01
	6.934544749701769e-01,-5.006454785074788e-01

 57	3.715352290971718e+04,0.000000000000000e+00
	1.000000000000000e+00,0.000000000000000e+00
	8.010407195016255e-01,-3.464269731277601e-01
	6.829522070271793e-01,-5.058570227202213e-01

 58	3.801893963205605e+04,0.000000000000000e+00
	1.000000000000000e+00,0.000000000000000e+00
	7.942723115272821e-01,-3.503177890668785e-01
	6.722285515322289e-01,-5.108997742892386e-01

 59	3.890451449942798e+04,0.000000000000000e+00
	1.000000000000000e+00,0.000000000000000e+00
	7.873634657938858e-01,-3.541146094905435e-01
	6.612882201770274e-01,-5.157627283009243e-01

 60	3.981071705534965e+04,0.000000000000000e+00
	1.000000000000000e+00,0.000000000000000e+00
	7.803172108775412e-01,-3.578110146216099e-01
	6.501365935736709e-01,-5.204349549861004e-01

 61	4.073802778041119e+04,0.000000000000000e+00
	1.000000000000000e+00,0.000000000000000e+00
	7.731369796766906e-01,-3.614006635606505e-01
	6.387797275436407e-01,-5.249056466965559e-01

 62	4.168693834703345e+04,0.000000000000000e+00
	1.000000000000000e+00,0.000000000000000e+00
	7.658266104486501e-01,-3.648773240034233e-01
	6.272243556322026e-01,-5.291641663410830e-01

 63	4.265795188015917e+04,0.000000000000000e+00
	1.000000000000000e+00,0.000000000000000e+00
	7.583903453588318e-01,-3.682349026282480e-01
	6.154778876237068e-01,-5.332000969445474e-01

 64	4.365158322401650e+04,0.000000000000000e+00
	1.000000000000000e+00,0.000000000000000e+00
	7.508328264240192e-01,-3.714674759231646e-01
	6.035484038657858e-01,-5.370032919603562e-01

 65	4.466835921509621e+04,0.000000000000000e+00
	1.000000000000000e+00,0.000000000000000e+00
	7.431590887543403e-01,-3.745693212042074e-01
	5.914446452480059e-01,-5.405639259368353e-01

 66	4.570881896148739e+04,0.000000000000000e+00
	1.000000000000000e+00,0.000000000000000e+00
	7.353745510247612e-01,-3.775349475601244e-01
	5.791759987227625e-01,-5.438725451122894e-01

 67	4.677351412871970e+04,0.000000000000000e+00
	1.000000000000000e+00,0.000000000000000e+00
	7.274850031357020e-01,-3.803591264458674e-01
	5.667524783026433e-01,-5.469201174926200e-01

 68	4.786300923226371e+04,0.000000000000000e+00
	1.000000000000000e+00,0.000000000000000e+00
	7.194965910534156e-01,-3.830369216376397e-01
	5.541847015185448e-01,-5.496980819501160e-01

 69	4.897788193684450e+04,0.000000000000000e+00
	1.000000000000000e+00,0.000000000000000e+00
	7.114157988535698e-01,-3.855637182565693e-01
	5.414838613757422e-01,-5.521983958729273e-01

 70	5.011872336272710e+04,0.000000000000000e+00
	1.000000000000000e+00,0.000000000000000e+00
	7.032494280255568e-01,-3.879352505665349e-01
	5.286616939000655e-01,-5.544135808924080e-01

 71	5.128613839913635e+04,0.000000000000000e+00
	1.000000000000000e+00,0.000000000000000e+00
	6.950045741298020e-01,-3.901476282545342e-01
	5.157304414223534e-01,-5.563367662203118e-01

 72	5.248074602497712e+04,0.000000000000000e+00
	1.000000000000000e+00,0.000000000000000e+00
	6.866886009351574e-01,-3.921973609094137e-01
	5.027028118054634e-01,-5.579617291400091e-01

 73	5.370317963702512e+04,0.000000000000000e+00
	1.000000000000000e+00,0.000000000000000e+00
	6.783091121976438e-01,-3.940813804268457e-01
	4.895919338731647e-01,-5.592829322155817e-01

 74	5.495408738576230e+04,0.000000000000000e+00
	1.000000000000000e+00,0.000000000000000e+00
	6.698739212747096e-01,-3.957970610850778e-01
	4.764113093532024e-01,-5.602955568097420e-01

 75	5.623413251903475e+04,0.000000000000000e+00
	1.000000000000000e+00,0.000000000000000e+00
	6.613910188000843e-01,-3.973422370570383e-01
	4.631747616965468e-01,-5.609955325357528e-01

 76	5.754399373371553e+04,0.000000000000000e+00
	1.000000000000000e+00,0.000000000000000e+00
	6.528685386726004e-01,-3.987152171496141e-01
	4.498963821802813e-01,-5.613795623095085e-01

 77	5.888436553555873e+04,0.000000000000000e+00
	1.000000000000000e+00,0.000000000000000e+00
	6.443147226373860e-01,-3.999147965899058e-01
	4.365904737417402e-01,-5.614451427149865e-01

 78	6.025595860743560e+04,0.000000000000000e+00
	1.000000000000000e+00,0.000000000000000e+00
	6.357378837590841e-01,-4.009402657105857e-01
	4.232714930254934e-01,-5.611905794487227e-01

 79	6.165950018614803e+04,0.000000000000000e+00
	1.000000000000000e+00,0.000000000000000e+00
	6.271463691036955e-01,-4.017914154215351e-01
	4.099539911517767e-01,-5.606149976657885e-01

 80	6.309573444801914e+04,0.000000000000000e+00
	1.000000000000000e+00,0.000000000000000e+00
	6.185485219579411e-01,-4.024685393921000e-01
	3.966525537344094e-01,-5.597183471100068e-01

 81	6.456542290346536e+04,0.000000000000000e+00
	1.000000000000000e+00,0.000000000000000e+00
	6.099526439223757e-01,-4.029724329068841e-01
	3.833817406876178e-01,-5.585014019736528e-01

 82	6.606934480075940e+04,0.000000000000000e+00
	1.000000000000000e+00,0.000000000000000e+00
	6.013669572167190e-01,-4.033043883972440e-01
	3.701560263642724e-01,-5.569657554954643e-01

 83	6.760829753919797e+04,0.000000000000000e+00
	1.000000000000000e+00,0.000000000000000e+00
	5.927995675329245e-01,-4.034661876898332e-01
	3.569897405627208e-01,-5.551138093692290e-01

 84	6.918309709189343e+04,0.000000000000000e+00
	1.000000000000000e+00,0.000000000000000e+00
	5.842584277635098e-01,-4.034600910518883e-01
	3.438970109258395e-01,-5.529487580972905e-01

 85	7.079457843841356e+04,0.000000000000000e+00
	1.000000000000000e+00,0.000000000000000e+00
	5.757513029197419e-01,-4.032888231497442e-01
	3.308917072343744e-01,-5.504745684828238e-01

 86	7.244359600749877e+04,0.000000000000000e+00
	1.000000000000000e+00,0.000000000000000e+00
	5.672857365367984e-01,-4.029555560716234e-01
	3.179873880676704e-01,-5.476959545106030e-01

 87	7.413102413009151e+04,0.000000000000000e+00
	1.000000000000000e+00,0.000000000000000e+00
	5.588690188413490e-01,-4.024638895974440e-01
	3.051972502690894e-01,-5.446183479171716e-01

 88	7.585775750291813e+04,0.000000000000000e+00
	1.000000000000000e+00,0.000000000000000e+00
	5.505081569316693e-01,-4.018178289266929e-01
	2.925340816116550e-01,-5.412478647969756e-01

 89	7.762471166286893e+04,0.000000000000000e+00
	1.000000000000000e+00,0.000000000000000e+00
	5.422098471919471e-01,-4.010217600998571e-01
	2.800102170126118e-01,-5.375912686303664e-01

 90	7.943282347242789e+04,0.000000000000000e+00
	1.000000000000000e+00,0.000000000000000e+00
	5.339804501315298e-01,-4.000804233691678e-01
	2.676374985947118e-01,-5.336559301518943e-01

 91	8.128305161640965e+04,0.000000000000000e+00
	1.000000000000000e+00,0.000000000000000e+00
	5.258259678071201e-01,-3.989988847902252e-01
	2.554272398381734e-01,-5.294497845025606e-01

 92	8.317637711026681e+04,0.000000000000000e+00
	1.000000000000000e+00,0.000000000000000e+00
	5.177520239520683e-01,-3.977825063173288e-01
	2.433901940115400e-01,-5.249812861274907e-01

 93	8.511380382023734e+04,0.000000000000000e+00
	1.000000000000000e+00,0.000000000000000e+00
	5.097638469025872e-01,-3.964369146920102e-01
	2.315365270131592e-01,-5.202593618907656e-01

 94	8.709635899560775e+04,0.000000000000000e+00
	1.000000000000000e+00,0.000000000000000e+00
	5.018662553765985e-01,-3.949679694164337e-01
	2.198757946988132e-01,-5.152933628820645e-01

 95	8.912509381337423e+04,0.000000000000000e+00
	1.000000000000000e+00,0.000000000000000e+00
	4.940636471276228e-01,-3.933817301011958e-01
	2.084169247161287e-01,-5.100930153855912e-01

 96	9.120108393559064e+04,0.000000000000000e+00
	1.000000000000000e+00,0.000000000000000e+00
	4.863599904642292e-01,-3.916844234708627e-01
	1.971682028137431e-01,-5.046683714709135e-01

 97	9.332543007969875e+04,0.000000000000000e+00
	1.000000000000000e+00,0.000000000000000e+00
	4.787588185955396e-01,-3.898824103007098e-01
	1.861372635435844e-01,-4.990297596484025e-01

 98	9.549925860214324e+04,0.000000000000000e+00
	1.000000000000000e+00,0.000000000000000e+00
	4.712632267356053e-01,-3.879821525449459e-01
	1.753310852287825e-01,-4.931877360095450e-01

 99	9.772372209558070e+04,0.000000000000000e+00
	1.000000000000000e+00,0.000000000000000e+00
	4.638758718744630e-01,-3.859901809006980e-01
	1.647559890282142e-01,-4.871530362452495e-01

 100	9.999999999999962e+04,0.000000000000000e+00
	1.000000000000000e+00,0.000000000000000e+00
	4.565989751016120e-01,-3.839130630336594e-01
	1.544176418919631e-01,-4.809365289041491e-01

 101	1.023292992280750e+05,0.000000000000000e+00
	1.000000000000000e+00,0.000000000000000e+00
	4.494343263487211e-01,-3.817573726710916e-01
	1.443210631703480e-01,-4.745491702186256e-01

 102	1.047128548050895e+05,0.000000000000000e+00
	1.000000000000000e+00,0.000000000000000e+00
	4.423832914026661e-01,-3.795296597462848e-01
	1.344706346128285e-01,-4.680019607896220e-01

 103	1.071519305237602e+05,0.000000000000000e+00
	1.000000000000000e+00,0.000000000000000e+00
	4.354468210275592e-01,-3.772364217561659e-01
	1.248701134720907e-01,-4.613059043831046e-01

 104	1.096478196143181e+05,0.000000000000000e+00
	1.000000000000000e+00,0.000000000000000e+00
	4.286254620251843e-01,-3.748840764709150e-01
	1.155226484128921e-01,-4.544719690519913e-01

 105	1.122018454301959e+05,0.000000000000000e+00
	1.000000000000000e+00,0.000000000000000e+00
	4.219193700571192e-01,-3.724789361116944e-01
	1.064307979146497e-01,-4.475110507582173e-01

 106	1.148153621496878e+05,0.000000000000000e+00
	1.000000000000000e+00,0.000000000000000e+00
	4.153283240486151e-01,-3.700271830902782e-01
	9.759655085104296e-02,-4.404339396309963e-01

 107	1.174897554939525e+05,0.000000000000000e+00
	1.000000000000000e+00,0.000000000000000e+00
	4.088517419938067e-01,-3.675348473828701e-01
	8.902134892874633e-02,-4.332512889598132e-01

 108	1.202264434617408e+05,0.000000000000000e+00
	1.000000000000000e+00,0.000000000000000e+00
	4.024886979838010e-01,-3.650077855900055e-01
	8.070611067044237e-02,-4.259735869847788e-01

 109	1.230268770812377e+05,0.000000000000000e+00
	1.000000000000000e+00,0.000000000000000e+00
	3.962379402833500e-01,-3.624516617154139e-01
	7.265125663406946e-02,-4.186111315130709e-01

 110	1.258925411794162e+05,0.000000000000000e+00
	1.000000000000000e+00,0.000000000000000e+00
	3.900979102878546e-01,-3.598719296792630e-01
	6.485673557037316e-02,-4.111740073586304e-01

 111	1.288249551693129e+05,0.000000000000000e+00
	1.000000000000000e+00,0.000000000000000e+00
	3.840667622000741e-01,-3.572738175654714e-01
	5.732205123381381e-02,-4.036720665733287e-01

 112	1.318256738556402e+05,0.000000000000000e+00
	1.000000000000000e+00,0.000000000000000e+00
	3.781423832748083e-01,-3.546623135888631e-01
	5.004628957725460e-02,-3.961149114116450e-01

 113	1.348962882591648e+05,0.000000000000000e+00
	1.000000000000000e+00,0.000000000000000e+00
	3.723224144896820e-01,-3.520421537558893e-01
	4.302814607817138e-02,-3.885118799475984e-01

 114	1.380384264602879e+05,0.000000000000000e+00
	1.000000000000000e+00,0.000000000000000e+00
	3.666042715106860e-01,-3.494178111824836e-01
	3.626595296294366e-02,-3.808720342423170e-01

 115	1.412537544622748e+05,0.000000000000000e+00
	1.000000000000000e+00,0.000000000000000e+00
	3.609851658320556e-01,-3.467934870243015e-01
	2.975770611570178e-02,-3.732041509431774e-01

 116	1.445439770745921e+05,0.000000000000000e+00
	1.000000000000000e+00,0.000000000000000e+00
	3.554621259811181e-01,-3.441731029680771e-01
	2.350109147883622e-02,-3.655167141808525e-01

 117	1.479108388168201e+05,0.000000000000000e+00
	1.000000000000000e+00,0.000000000000000e+00
	3.500320186896935e-01,-3.415602952279986e-01
	1.749351077327149e-02,-3.578179106187543e-01

 118	1.513561248436202e+05,0.000000000000000e+00
	1.000000000000000e+00,0.000000000000000e+00
	3.446915699442700e-01,-3.389584099877557e-01
	1.173210638767919e-02,-3.501156265001383e-01

 119	1.548816618912475e+05,0.000000000000000e+00
	1.000000000000000e+00,0.000000000000000e+00
	3.394373858373172e-01,-3.363705002270990e-01
	6.213785306667108e-03,-3.424174465313450e-01

 120	1.584893192461107e+05,0.000000000000000e+00
	1.000000000000000e+00,0.000000000000000e+00
	3.342659731515810e-01,-3.337993238712250e-01
	9.352419684192925e-04,-3.347306544351747e-01

 121	1.621810097358923e+05,0.000000000000000e+00
	1.000000000000000e+00,0.000000000000000e+00
	3.291737596179153e-01,-3.312473432018914e-01
	-4.107020037916354e-03,-3.270622350059730e-01

 122	1.659586907437553e+05,0.000000000000000e+00
	1.000000000000000e+00,0.000000000000000e+00
	3.241571137950132e-01,-3.287167254706996e-01
	-8.916667505749210e-03,-3.194188774975010e-01

 123	1.698243652461737e+05,0.000000000000000e+00
	1.000000000000000e+00,0.000000000000000e+00
	3.192123645262694e-01,-3.262093446572878e-01
	-1.349751842797156e-02,-3.118069801758699e-01

 124	1.737800828749368e+05,0.000000000000000e+00
	1.000000000000000e+00,0.000000000000000e+00
	3.143358199348468e-01,-3.237267843180645e-01
	-1.785352413261221e-02,-3.042326558725307e-01

 125	1.778279410038915e+05,0.000000000000000e+00
	1.000000000000000e+00,0.000000000000000e+00
	3.095237859228441e-01,-3.212703414744093e-01
	-2.198875275640574e-02,-2.967017383763734e-01

 126	1.819700858609975e+05,0.000000000000000e+00
	1.000000000000000e+00,0.000000000000000e+00
	3.047725841442439e-01,-3.188410314928047e-01
	-2.590737406042007e-02,-2.892197895092267e-01

 127	1.862087136662859e+05,0.000000000000000e+00
	1.000000000000000e+00,0.000000000000000e+00
	3.000785694240941e-01,-3.164395939129639e-01
	-2.961364557795115e-02,-2.817921067352918e-01

 128	1.905460717963238e+05,0.000000000000000e+00
	1.000000000000000e+00,0.000000000000000e+00
	2.954381465981797e-01,-3.140664991835288e-01
	-3.311190007206435e-02,-2.744237311621718e-01

 129	1.949844599758036e+05,0.000000000000000e+00
	1.000000000000000e+00,0.000000000000000e+00
	2.908477867483422e-01,-3.117219562681907e-01
	-3.640653426845368e-02,-2.671194557990330e-01

 130	1.995262314968870e+05,0.000000000000000e+00
	1.000000000000000e+00,0.000000000000000e+00
	2.863040428086670e-01,-3.094059210879784e-01
	-3.950199881867196e-02,-2.598838339459331e-01

 131	2.041737944669520e+05,0.000000000000000e+00
	1.000000000000000e+00,0.000000000000000e+00
	2.818035645171058e-01,-3.071181057678629e-01
	-4.240278943925101e-02,-2.527211875973965e-01

 132	2.089296130854030e+05,0.000000000000000e+00
	1.000000000000000e+00,0.000000000000000e+00
	2.773431126858096e-01,-3.048579886576187e-01
	-4.511343916375186e-02,-2.456356157527930e-01

 133	2.137962089502222e+05,0.000000000000000e+00
	1.000000000000000e+00,0.000000000000000e+00
	2.729195727616751e-01,-3.026248250979842e-01
	-4.763851163734779e-02,-2.386310025359336e-01

 134	2.187761623949542e+05,0.000000000000000e+00
	1.000000000000000e+00,0.000000000000000e+00
	2.685299676464580e-01,-3.004176589034931e-01
	-4.998259537712613e-02,-2.317110250364343e-01

 135	2.238721138568328e+05,0.000000000000000e+00
	1.000000000000000e+00,0.000000000000000e+00
	2.641714697434512e-01,-2.982353345328593e-01
	-5.215029891587740e-02,-2.248791607957855e-01

 136	2.290867652767762e+05,0.000000000000000e+00
	1.000000000000000e+00,0.000000000000000e+00
	2.598414121952926e-01,-2.960765099164587e-01
	-5.414624674272075e-02,-2.181386948716193e-01

 137	2.344228815319910e+05,0.000000000000000e+00
	1.000000000000000e+00,0.000000000000000e+00
	2.555372992751307e-01,-2.939396699082471e-01
	-5.597507595047051e-02,-2.114927264243437e-01

 138	2.398832919019478e+05,0.000000000000000e+00
	1.000000000000000e+00,0.000000000000000e+00
	2.512568158912732e-01,-2.918231403264042e-01
	-5.764143349719027e-02,-2.049441747810524e-01

 139	2.454708915685018e+05,0.000000000000000e+00
	1.000000000000000e+00,0.000000000000000e+00
	2.469978361637535e-01,-2.897251025431324e-01
	-5.914997398789201e-02,-1.984957849423715e-01

 140	2.511886431509567e+05,0.000000000000000e+00
	1.000000000000000e+00,0.000000000000000e+00
	2.427584310301005e-01,-2.876436085794261e-01
	-6.050535788183070e-02,-1.921501325085967e-01

 141	2.570395782768851e+05,0.000000000000000e+00
	1.000000000000000e+00,0.000000000000000e+00
	2.385368748371456e-01,-2.855765966553533e-01
	-6.171225003131205e-02,-1.859096280120532e-01

 142	2.630267991895369e+05,0.000000000000000e+00
	1.000000000000000e+00,0.000000000000000e+00
	2.343316508760775e-01,-2.835219071405558e-01
	-6.277531845937745e-02,-1.797765206529984e-01

 143	2.691534803926902e+05,0.000000000000000e+00
	1.000000000000000e+00,0.000000000000000e+00
	2.301414558192682e-01,-2.814772988434123e-01
	-6.369923328614893e-02,-1.737529014465089e-01

 144	2.754228703338153e+05,0.000000000000000e+00
	1.000000000000000e+00,0.000000000000000e+00
	2.259652030197510e-01,-2.794404655707722e-01
	-6.448866571700035e-02,-1.678407057975640e-01

 145	2.818382931264440e+05,0.000000000000000e+00
	1.000000000000000e+00,0.000000000000000e+00
	2.218020246377000e-01,-2.774090528835214e-01
	-6.514828701005435e-02,-1.620417155308657e-01

 146	2.884031503126592e+05,0.000000000000000e+00
	1.000000000000000e+00,0.000000000000000e+00
	2.176512725628902e-01,-2.753806749666649e-01
	-6.568276734575589e-02,-1.563575604107331e-01

 147	2.951209226666371e+05,0.000000000000000e+00
	1.000000000000000e+00,0.000000000000000e+00
	2.135125181079371e-01,-2.733529315263118e-01
	-6.609677452741211e-02,-1.507897191945683e-01

 148	3.019951720402001e+05,0.000000000000000e+00
	1.000000000000000e+00,0.000000000000000e+00
	2.093855504540951e-01,-2.713234246201026e-01
	-6.639497244855551e-02,-1.453395202708136e-01

 149	3.090295432513575e+05,0.000000000000000e+00
	1.000000000000000e+00,0.000000000000000e+00
	2.052703738395129e-01,-2.692897753224596e-01
	-6.658201927072345e-02,-1.400081419389186e-01

 150	3.162277660168363e+05,0.000000000000000e+00
	1.000000000000000e+00,0.000000000000000e+00
	2.011672034890084e-01,-2.672496401217354e-01
	-6.666256526366124e-02,-1.347966123944890e-01

 151	3.235936569296266e+05,0.000000000000000e+00
	1.000000000000000e+00,0.000000000000000e+00
	1.970764602945283e-01,-2.652007269430915e-01
	-6.664125026896167e-02,-1.297058094874369e-01

 152	3.311311214825894e+05,0.000000000000000e+00
	1.000000000000000e+00,0.000000000000000e+00
	1.929987642663569e-01,-2.631408106889221e-01
	-6.652270075762191e-02,-1.247364603244893e-01

 153	3.388441561392008e+05,0.000000000000000e+00
	1.000000000000000e+00,0.000000000000000e+00
	1.889349267866575e-01,-2.610677481880013e-01
	-6.631152646181514e-02,-1.198891407897858e-01

 154	3.467368504525298e+05,0.000000000000000e+00
	1.000000000000000e+00,0.000000000000000e+00
	1.848859417088674e-01,-2.589794924453975e-01
	-6.601231657118359e-02,-1.151642750584540e-01

 155	3.548133892335736e+05,0.000000000000000e+00
	1.000000000000000e+00,0.000000000000000e+00
	1.808529753585987e-01,-2.568741060876602e-01
	-6.562963549402021e-02,-1.105621351779539e-01

 156	3.630780547700995e+05,0.000000000000000e+00
	1.000000000000000e+00,0.000000000000000e+00
	1.768373555037794e-01,-2.547497739018975e-01
	-6.516801819364507e-02,-1.060828407906255e-01

 157	3.715352290971706e+05,0.000000000000000e+00
	1.000000000000000e+00,0.000000000000000e+00
	1.728405593735535e-01,-2.526048143731439e-01
	-6.463196511994693e-02,-1.017263590682728e-01

 158	3.801893963205592e+05,0.000000000000000e+00
	1.000000000000000e+00,0.000000000000000e+00
	1.688642008166767e-01,-2.504376901318414e-01
	-6.402593676527198e-02,-9.749250492579911e-02

 159	3.890451449942786e+05,0.000000000000000e+00