Title: * simulation de rc2
Date: Tue May 10 19:38:12  2022
Plotname: Transient Analysis
Flags: real
No. Variables: 5
No. Points: 1069
Variables:
	0	time	time
	1	v(n0)	voltage
	2	v(n1)	voltage
	3	v(n2)	voltage
	4	i(v1)	current
Values:
 0	0.000000000000000e+00
	0.000000000000000e+00
	-1.000000000000000e+00
	-2.000000000000000e+00
	-1.000000000000000e-03

 1	1.000000000000000e-10
	0.000000000000000e+00
	-1.000000000000000e+00
	-2.000000000000000e+00
	-1.000000000000000e-03

 2	2.000000000000000e-10
	0.000000000000000e+00
	-1.000000000000000e+00
	-2.000000000000000e+00
	-1.000000000000000e-03

 3	4.000000000000000e-10
	0.000000000000000e+00
	-1.000000000000000e+00
	-2.000000000000000e+00
	-1.000000000000000e-03

 4	8.000000000000000e-10
	0.000000000000000e+00
	-9.999999999999999e-01
	-2.000000000000000e+00
	-9.999999999999998e-04

 5	1.600000000000000e-09
	0.000000000000000e+00
	-9.999999999999997e-01
	-1.999999999999999e+00
	-9.999999999999996e-04

 6	3.200000000000000e-09
	0.000000000000000e+00
	-1.000000000000000e+00
	-2.000000000000000e+00
	-1.000000000000000e-03

 7	6.400000000000000e-09
	0.000000000000000e+00
	-1.000000000000001e+00
	-2.000000000000000e+00
	-1.000000000000001e-03

 8	1.000000000000000e-08
	0.000000000000000e+00
	-1.000000000000000e+00
	-2.000000000000000e+00
	-1.000000000000000e-03

 9	1.064000000000000e-08
	6.399999999999995e-02
	-9.999590923450538e-01
	-1.999999973835846e+00
	-1.063959092345054e-03

 10	1.192000000000000e-08
	1.920000000000000e-01
	-9.997955662481584e-01
	-1.999999816951243e+00
	-1.191795566248158e-03

 11	1.448000000000000e-08
	4.480000000000001e-01
	-9.989794996071969e-01
	-1.999998251507911e+00
	-1.446979499607197e-03

 12	1.960000000000000e-08
	9.600000000000003e-01
	-9.954037318168245e-01
	-1.999983918225838e+00
	-1.955403731816825e-03

 13	2.000000000000000e-08
	1.000000000000000e+00
	-9.950155572866078e-01
	-1.999982008898233e+00
	-1.995015557286608e-03

 14	2.079999999999999e-08
	1.000000000000000e+00
	-9.942247795647418e-01
	-1.999977406796448e+00
	-1.994224779564742e-03

 15	2.239999999999998e-08
	1.000000000000000e+00
	-9.926457422135185e-01
	-1.999966947730250e+00
	-1.992645742213518e-03

 16	2.559999999999996e-08
	1.000000000000000e+00
	-9.895027159222345e-01
	-1.999938536488518e+00
	-1.989502715922234e-03

 17	3.199999999999991e-08
	1.000000000000000e+00
	-9.832762605072222e-01
	-1.999852099178957e+00
	-1.983276260507223e-03

 18	4.199999999999991e-08
	1.000000000000000e+00
	-9.737039169379699e-01
	-1.999639541860983e+00
	-1.973703916937970e-03

 19	5.199999999999991e-08
	1.000000000000000e+00
	-9.643185637535688e-01
	-1.999334782641926e+00
	-1.964318563753569e-03

 20	6.199999999999991e-08
	1.000000000000000e+00
	-9.551155989233038e-01
	-1.998940576658806e+00
	-1.955115598923304e-03

 21	7.199999999999990e-08
	1.000000000000000e+00
	-9.460905384648678e-01
	-1.998459606430302e+00
	-1.946090538464868e-03

 22	8.199999999999990e-08
	1.000000000000000e+00
	-9.372390133970937e-01
	-1.997894483738766e+00
	-1.937239013397094e-03

 23	9.199999999999990e-08
	1.000000000000000e+00
	-9.285567667714205e-01
	-1.997247751463596e+00
	-1.928556766771421e-03

 24	1.019999999999999e-07
	1.000000000000000e+00
	-9.200396507800598e-01
	-1.996521885367199e+00
	-1.920039650780060e-03

 25	1.119999999999999e-07
	1.000000000000000e+00
	-9.116836239388804e-01
	-1.995719295834784e+00
	-1.911683623938881e-03

 26	1.219999999999999e-07
	1.000000000000000e+00
	-9.034847483430806e-01
	-1.994842329569174e+00
	-1.903484748343081e-03

 27	1.319999999999999e-07
	1.000000000000000e+00
	-8.954391869937670e-01
	-1.993893271241803e+00
	-1.895439186993767e-03

 28	1.419999999999999e-07
	1.000000000000000e+00
	-8.875432011936075e-01
	-1.992874345101026e+00
	-1.887543201193608e-03

 29	1.519999999999999e-07
	1.000000000000000e+00
	-8.797931480097733e-01
	-1.991787716538844e+00
	-1.879793148009773e-03

 30	1.619999999999999e-07
	1.000000000000000e+00
	-8.721854778024312e-01
	-1.990635493617125e+00
	-1.872185477802431e-03

 31	1.720000000000000e-07
	1.000000000000000e+00
	-8.647167318170935e-01
	-1.989419728554366e+00
	-1.864716731817094e-03

 32	1.820000000000000e-07
	1.000000000000000e+00
	-8.573835398391729e-01
	-1.988142419174005e+00
	-1.857383539839173e-03

 33	1.920000000000000e-07
	1.000000000000000e+00
	-8.501826179091365e-01
	-1.986805510315300e+00
	-1.850182617909137e-03

 34	2.020000000000000e-07
	1.000000000000000e+00
	-8.431107660966934e-01
	-1.985410895207713e+00
	-1.843110766096693e-03

 35	2.120000000000000e-07
	1.000000000000000e+00
	-8.361648663324892e-01
	-1.983960416809772e+00
	-1.836164866332489e-03

 36	2.220000000000000e-07
	1.000000000000000e+00
	-8.293418802958213e-01
	-1.982455869113298e+00
	-1.829341880295821e-03

 37	2.320000000000000e-07
	1.000000000000000e+00
	-8.226388473569298e-01
	-1.980898998413926e+00
	-1.822638847356930e-03

 38	2.420000000000000e-07
	1.000000000000000e+00
	-8.160528825724496e-01
	-1.979291504548759e+00
	-1.816052882572450e-03

 39	2.520000000000000e-07
	1.000000000000000e+00
	-8.095811747326527e-01
	-1.977635042102030e+00
	-1.809581174732653e-03

 40	2.620000000000000e-07
	1.000000000000000e+00
	-8.032209844591429e-01
	-1.975931221579581e+00
	-1.803220984459143e-03

 41	2.720000000000001e-07
	1.000000000000000e+00
	-7.969696423516974e-01
	-1.974181610552972e+00
	-1.796969642351697e-03

 42	2.820000000000001e-07
	1.000000000000000e+00
	-7.908245471829858e-01
	-1.972387734774011e+00
	-1.790824547182986e-03

 43	2.920000000000001e-07
	1.000000000000000e+00
	-7.847831641399293e-01
	-1.970551079260453e+00
	-1.784783164139929e-03

 44	3.020000000000001e-07
	1.000000000000000e+00
	-7.788430231104957e-01
	-1.968673089353635e+00
	-1.778843023110496e-03

 45	3.120000000000001e-07
	1.000000000000000e+00
	-7.730017170147553e-01
	-1.966755171748749e+00
	-1.773001717014755e-03

 46	3.220000000000001e-07
	1.000000000000000e+00
	-7.672569001790535e-01
	-1.964798695498482e+00
	-1.767256900179054e-03

 47	3.320000000000001e-07
	1.000000000000000e+00
	-7.616062867521870e-01
	-1.962804992990691e+00
	-1.761606286752187e-03

 48	3.420000000000001e-07
	1.000000000000000e+00
	-7.560476491624978e-01
	-1.960775360900807e+00
	-1.756047649162498e-03

 49	3.520000000000001e-07
	1.000000000000000e+00
	-7.505788166148265e-01
	-1.958711061119592e+00
	-1.750578816614827e-03

 50	3.620000000000001e-07
	1.000000000000000e+00
	-7.451976736262976e-01
	-1.956613321656915e+00
	-1.745197673626298e-03

 51	3.720000000000002e-07
	1.000000000000000e+00
	-7.399021585999307e-01
	-1.954483337522150e+00
	-1.739902158599931e-03

 52	3.820000000000002e-07
	1.000000000000000e+00
	-7.346902624351003e-01
	-1.952322271581805e+00
	-1.734690262435100e-03

 53	3.920000000000002e-07
	1.000000000000000e+00
	-7.295600271738941e-01
	-1.950131255394967e+00
	-1.729560027173894e-03

 54	4.020000000000002e-07
	1.000000000000000e+00
	-7.245095446824413e-01
	-1.947911390027138e+00
	-1.724509544682441e-03

 55	4.120000000000002e-07
	1.000000000000000e+00
	-7.195369553663048e-01
	-1.945663746843031e+00
	-1.719536955366305e-03

 56	4.220000000000002e-07
	1.000000000000000e+00
	-7.146404469190604e-01
	-1.943389368278849e+00
	-1.714640446919060e-03

 57	4.320000000000002e-07
	1.000000000000000e+00
	-7.098182531032049e-01
	-1.941089268594593e+00
	-1.709818253103205e-03

 58	4.420000000000002e-07
	1.000000000000000e+00
	-7.050686525625550e-01
	-1.938764434606914e+00
	-1.705068652562555e-03

 59	4.520000000000002e-07
	1.000000000000000e+00
	-7.003899676653259e-01
	-1.936415826403003e+00
	-1.700389967665326e-03

 60	4.620000000000002e-07
	1.000000000000000e+00
	-6.957805633770968e-01
	-1.934044378036020e+00
	-1.695780563377097e-03

 61	4.720000000000003e-07
	1.000000000000000e+00
	-6.912388461628898e-01
	-1.931650998202527e+00
	-1.691238846162890e-03

 62	4.820000000000002e-07
	1.000000000000000e+00
	-6.867632629176095e-01
	-1.929236570902405e+00
	-1.686763262917610e-03

 63	4.920000000000002e-07
	1.000000000000000e+00
	-6.823522999241127e-01
	-1.926801956081694e+00
	-1.682352299924113e-03

 64	5.020000000000002e-07
	1.000000000000000e+00
	-6.780044818381921e-01
	-1.924347990258803e+00
	-1.678004481838192e-03

 65	5.120000000000002e-07
	1.000000000000000e+00
	-6.737183706997790e-01
	-1.921875487134525e+00
	-1.673718370699779e-03

 66	5.220000000000003e-07
	1.000000000000000e+00
	-6.694925649696882e-01
	-1.919385238186268e+00
	-1.669492564969688e-03

 67	5.320000000000003e-07
	1.000000000000000e+00
	-6.653256985912447e-01
	-1.916878013246907e+00
	-1.665325698591245e-03

 68	5.420000000000003e-07
	1.000000000000000e+00
	-6.612164400761485e-01
	-1.914354561068666e+00
	-1.661216440076149e-03

 69	5.520000000000003e-07
	1.000000000000000e+00
	-6.571634916139528e-01
	-1.911815609872411e+00
	-1.657163491613953e-03

 70	5.620000000000003e-07
	1.000000000000000e+00
	-6.531655882045437e-01
	-1.909261867882728e+00
	-1.653165588204544e-03

 71	5.720000000000003e-07
	1.000000000000000e+00
	-6.492214968130277e-01
	-1.906694023849156e+00
	-1.649221496813028e-03

 72	5.820000000000003e-07
	1.000000000000000e+00
	-6.453300155464484e-01
	-1.904112747553937e+00
	-1.645330015546448e-03

 73	5.920000000000003e-07
	1.000000000000000e+00
	-6.414899728517691e-01
	-1.901518690306626e+00
	-1.641489972851769e-03

 74	6.020000000000003e-07
	1.000000000000000e+00
	-6.377002267345683e-01
	-1.898912485425895e+00
	-1.637700226734568e-03

 75	6.120000000000003e-07
	1.000000000000000e+00
	-6.339596639979171e-01
	-1.896294748708883e+00
	-1.633959663997917e-03

 76	6.220000000000004e-07
	1.000000000000000e+00
	-6.302671995009153e-01
	-1.893666078888391e+00
	-1.630267199500915e-03

 77	6.320000000000004e-07
	1.000000000000000e+00
	-6.266217754363756e-01
	-1.891027058078245e+00
	-1.626621775436376e-03

 78	6.420000000000004e-07
	1.000000000000000e+00
	-6.230223606271673e-01
	-1.888378252207135e+00
	-1.623022360627167e-03

 79	6.520000000000004e-07
	1.000000000000000e+00
	-6.194679498407304e-01
	-1.885720211441233e+00
	-1.619467949840730e-03

 80	6.620000000000004e-07
	1.000000000000000e+00
	-6.159575631212957e-01
	-1.883053470595858e+00
	-1.615957563121296e-03

 81	6.720000000000004e-07
	1.000000000000000e+00
	-6.124902451393511e-01
	-1.880378549536499e+00
	-1.612490245139351e-03

 82	6.820000000000004e-07
	1.000000000000000e+00
	-6.090650645579084e-01
	-1.877695953569456e+00
	-1.609065064557909e-03

 83	6.920000000000004e-07
	1.000000000000000e+00
	-6.056811134151371e-01
	-1.875006173822362e+00
	-1.605681113415137e-03

 84	7.020000000000004e-07
	1.000000000000000e+00
	-6.023375065229425e-01
	-1.872309687614867e+00
	-1.602337506522943e-03

 85	7.120000000000004e-07
	1.000000000000000e+00
	-5.990333808810753e-01
	-1.869606958819714e+00
	-1.599033380881075e-03

 86	7.220000000000005e-07
	1.000000000000000e+00
	-5.957678951063717e-01
	-1.866898438214480e+00
	-1.595767895106372e-03

 87	7.320000000000005e-07
	1.000000000000000e+00
	-5.925402288767341e-01
	-1.864184563824202e+00
	-1.592540228876734e-03

 88	7.420000000000005e-07
	1.000000000000000e+00
	-5.893495823894689e-01
	-1.861465761255136e+00
	-1.589349582389469e-03

 89	7.520000000000005e-07
	1.000000000000000e+00
	-5.861951758336132e-01
	-1.858742444019876e+00
	-1.586195175833613e-03

 90	7.620000000000005e-07
	1.000000000000000e+00
	-5.830762488758880e-01
	-1.856015013854054e+00
	-1.583076248875888e-03

 91	7.720000000000005e-07
	1.000000000000000e+00
	-5.799920601599244e-01
	-1.853283861024839e+00
	-1.579992060159924e-03

 92	7.820000000000005e-07
	1.000000000000000e+00
	-5.769418868184224e-01
	-1.850549364631449e+00
	-1.576941886818422e-03

 93	7.920000000000005e-07
	1.000000000000000e+00
	-5.739250239979059e-01
	-1.847811892897884e+00
	-1.573925023997906e-03

 94	8.020000000000005e-07
	1.000000000000000e+00
	-5.709407843957492e-01
	-1.845071803458072e+00
	-1.570940784395749e-03

 95	8.120000000000005e-07
	1.000000000000000e+00
	-5.679884978091588e-01
	-1.842329443633637e+00
	-1.567988497809159e-03

 96	8.220000000000006e-07
	1.000000000000000e+00
	-5.650675106957997e-01
	-1.839585150704471e+00
	-1.565067510695800e-03

 97	8.320000000000006e-07
	1.000000000000000e+00
	-5.621771857457679e-01
	-1.836839252172295e+00
	-1.562177185745768e-03

 98	8.420000000000006e-07
	1.000000000000000e+00
	-5.593169014646127e-01
	-1.834092066017398e+00
	-1.559316901464613e-03

 99	8.520000000000006e-07
	1.000000000000000e+00
	-5.564860517671260e-01
	-1.831343900948727e+00
	-1.556486051767126e-03

 100	8.620000000000006e-07
	1.000000000000000e+00
	-5.536840455816197e-01
	-1.828595056647489e+00
	-1.553684045581620e-03

 101	8.720000000000006e-07
	1.000000000000000e+00
	-5.509103064644191e-01
	-1.825845824004459e+00
	-1.550910306464419e-03

 102	8.820000000000006e-07
	1.000000000000000e+00
	-5.481642722243097e-01
	-1.823096485351125e+00
	-1.548164272224310e-03

 103	8.920000000000006e-07
	1.000000000000000e+00
	-5.454453945566797e-01
	-1.820347314684850e+00
	-1.545445394556680e-03

 104	9.020000000000006e-07
	1.000000000000000e+00
	-5.427531386871073e-01
	-1.817598577888204e+00
	-1.542753138687107e-03

 105	9.120000000000006e-07
	1.000000000000000e+00
	-5.400869830241489e-01
	-1.814850532942606e+00
	-1.540086983024149e-03

 106	9.220000000000007e-07
	1.000000000000000e+00
	-5.374464188210918e-01
	-1.812103430136436e+00
	-1.537446418821092e-03

 107	9.320000000000007e-07
	1.000000000000000e+00
	-5.348309498464376e-01
	-1.809357512267753e+00
	-1.534830949846438e-03

 108	9.420000000000007e-07
	1.000000000000000e+00
	-5.322400920628919e-01
	-1.806613014841751e+00
	-1.532240092062892e-03

 109	9.520000000000007e-07
	1.000000000000000e+00
	-5.296733733146410e-01
	-1.803870166263115e+00
	-1.529673373314641e-03

 110	9.620000000000007e-07
	1.000000000000000e+00
	-5.271303330227000e-01
	-1.801129188023369e+00
	-1.527130333022700e-03

 111	9.720000000000006e-07
	1.000000000000000e+00
	-5.246105218881255e-01
	-1.798390294883389e+00
	-1.524610521888126e-03

 112	9.820000000000005e-07
	1.000000000000000e+00
	-5.221135016028883e-01
	-1.795653695051171e+00
	-1.522113501602888e-03

 113	9.920000000000004e-07
	1.000000000000000e+00
	-5.196388445682082e-01
	-1.792919590354996e+00
	-1.519638844568208e-03

 114	1.002000000000000e-06
	1.000000000000000e+00
	-5.171861336201600e-01
	-1.790188176412102e+00
	-1.517186133620160e-03

 115	1.012000000000000e-06
	1.000000000000000e+00
	-5.147549617623602e-01
	-1.787459642792988e+00
	-1.514754961762360e-03

 116	1.020000000000000e-06
	9.999999999999979e-01
	-5.128252744801136e-01
	-1.785279009130265e+00
	-1.512825274480112e-03

 117	1.021000000000000e-06
	9.899999999999971e-01
	-5.125950908959453e-01
	-1.785006597623537e+00
	-1.502595090895942e-03

 118	1.023000000000000e-06
	9.699999999999978e-01
	-5.121550590729279e-01
	-1.784461879296586e+00
	-1.482155059072926e-03

 119	1.027000000000000e-06
	9.299999999999968e-01
	-5.113965231268786e-01
	-1.783373312078237e+00
	-1.441396523126875e-03

 120	1.035000000000000e-06
	8.499999999999972e-01
	-5.103607662197308e-01
	-1.781202039827999e+00
	-1.360360766219728e-03

 121	1.045000000000000e-06
	7.499999999999982e-01
	-5.099561328713645e-01
	-1.778505088680910e+00
	-1.259956132871363e-03

 122	1.055000000000000e-06
	6.499999999999991e-01
	-5.105230454328663e-01
	-1.775835780227887e+00
	-1.160523045432865e-03

 123	1.065000000000000e-06
	5.500000000000000e-01
	-5.120425850908551e-01
	-1.773203412417280e+00
	-1.062042585090855e-03

 124	1.075000000000000e-06
	4.500000000000011e-01
	-5.144962983423526e-01
	-1.770617004748616e+00
	-9.644962983423537e-04

 125	1.085000000000000e-06
	3.500000000000021e-01
	-5.178661850601399e-01
	-1.768085305613816e+00
	-8.678661850601420e-04

 126	1.094999999999999e-06
	2.500000000000030e-01
	-5.221346868661865e-01
	-1.765616799448138e+00
	-7.721346868661894e-04

 127	1.104999999999999e-06
	1.500000000000040e-01
	-5.272846758051923e-01
	-1.763219713695775e+00
	-6.772846758051963e-04

 128	1.114999999999999e-06
	5.000000000000493e-02
	-5.332994433104890e-01
	-1.760902025594900e+00
	-5.832994433104939e-04

 129	1.120000000000000e-06
	0.000000000000000e+00
	-5.366265064942941e-01
	-1.759775147536583e+00
	-5.366265064942941e-04

 130	1.121000000000000e-06
	0.000000000000000e+00
	-5.373114365273065e-01
	-1.759552906067043e+00
	-5.373114365273065e-04

 131	1.123000000000000e-06
	0.000000000000000e+00
	-5.386781205517013e-01
	-1.759110232485570e+00
	-5.386781205517013e-04

 132	1.127000000000000e-06
	0.000000000000000e+00
	-5.413925297792633e-01
	-1.758235681957346e+00
	-5.413925297792633e-04

 133	1.135000000000000e-06
	0.000000000000000e+00
	-5.467464771657056e-01
	-1.756529178543125e+00
	-5.467464771657056e-04

 134	1.145000000000000e-06
	0.000000000000000e+00
	-5.533010200767264e-01
	-1.754474398145892e+00
	-5.533010200767265e-04

 135	1.155000000000000e-06
	0.000000000000000e+00
	-5.597058460947267e-01
	-1.752504537797035e+00
	-5.597058460947267e-04

 136	1.165000000000000e-06
	0.000000000000000e+00
	-5.659647492387587e-01
	-1.750617281676335e+00
	-5.659647492387588e-04

 137	1.175000000000000e-06
	0.000000000000000e+00
	-5.720814257684267e-01
	-1.748810374271632e+00
	-5.720814257684267e-04

 138	1.185000000000000e-06
	0.000000000000000e+00
	-5.780594767091024e-01
	-1.747081618818568e+00
	-5.780594767091024e-04

 139	1.195000000000000e-06
	0.000000000000000e+00
	-5.839024103118887e-01
	-1.745428875780678e+00
	-5.839024103118887e-04

 140	1.204999999999999e-06
	0.000000000000000e+00
	-5.896136444500167e-01
	-1.743850061368740e+00
	-5.896136444500168e-04

 141	1.214999999999999e-06
	0.000000000000000e+00
	-5.951965089533192e-01
	-1.742343146098421e+00
	-5.951965089533193e-04

 142	1.224999999999999e-06
	0.000000000000000e+00
	-6.006542478823803e-01
	-1.740906153385181e+00
	-6.006542478823804e-04

 143	1.234999999999999e-06
	0.000000000000000e+00
	-6.059900217439206e-01
	-1.739537158175509e+00
	-6.059900217439206e-04

 144	1.244999999999999e-06
	0.000000000000000e+00
	-6.112069096489372e-01
	-1.738234285613528e+00
	-6.112069096489372e-04

 145	1.254999999999999e-06
	0.000000000000000e+00
	-6.163079114150750e-01
	-1.736995709742070e+00
	-6.163079114150750e-04

 146	1.264999999999999e-06
	0.000000000000000e+00
	-6.212959496146745e-01
	-1.735819652237322e+00
	-6.212959496146746e-04

 147	1.274999999999999e-06
	0.000000000000000e+00
	-6.261738715698962e-01
	-1.734704381176177e+00
	-6.261738715698963e-04

 148	1.284999999999999e-06
	0.000000000000000e+00
	-6.309444512962926e-01
	-1.733648209835450e+00
	-6.309444512962926e-04

 149	1.294999999999999e-06
	0.000000000000000e+00
	-6.356103913961563e-01
	-1.732649495522125e+00
	-6.356103913961563e-04

 150	1.304999999999999e-06
	0.000000000000000e+00
	-6.401743249029450e-01
	-1.731706638433840e+00
	-6.401743249029450e-04

 151	1.314999999999998e-06
	0.000000000000000e+00
	-6.446388170780484e-01
	-1.730818080548831e+00
	-6.446388170780483e-04

 152	1.324999999999998e-06
	0.000000000000000e+00
	-6.490063671611238e-01
	-1.729982304544560e+00
	-6.490063671611238e-04

 153	1.334999999999998e-06
	0.000000000000000e+00
	-6.532794100752048e-01
	-1.729197832744297e+00
	-6.532794100752049e-04

 154	1.344999999999998e-06
	0.000000000000000e+00
	-6.574603180877514e-01
	-1.728463226090936e+00
	-6.574603180877515e-04

 155	1.354999999999998e-06
	0.000000000000000e+00
	-6.615514024287774e-01
	-1.727777083147327e+00
	-6.615514024287774e-04

 156	1.364999999999998e-06
	0.000000000000000e+00
	-6.655549148671669e-01
	-1.727138039122458e+00
	-6.655549148671669e-04

 157	1.374999999999998e-06
	0.000000000000000e+00
	-6.694730492462589e-01
	-1.726544764922798e+00
	-6.694730492462589e-04

 158	1.384999999999998e-06
	0.000000000000000e+00
	-6.733079429797537e-01
	-1.725995966228173e+00
	-6.733079429797537e-04

 159	1.394999999999998e-06
	0.000000000000000e+00
	-6.770616785089654e-01
	-1.725490382591518e+00
	-6.770616785089653e-04

 160	1.404999999999998e-06
	0.000000000000000e+00
	-6.807362847224189e-01
	-1.725026786561908e+00
	-6.807362847224189e-04

 161	1.414999999999997e-06
	0.000000000000000e+00
	-6.843337383387679e-01
	-1.724603982830252e+00
	-6.843337383387679e-04

 162	1.424999999999997e-06
	0.000000000000000e+00
	-6.878559652539771e-01
	-1.724220807397079e+00
	-6.878559652539771e-04

 163	1.434999999999997e-06
	0.000000000000000e+00
	-6.913048418536947e-01
	-1.723876126761823e+00
	-6.913048418536947e-04

 164	1.444999999999997e-06
	0.000000000000000e+00
	-6.946821962917151e-01
	-1.723568837133076e+00
	-6.946821962917152e-04

 165	1.454999999999997e-06
	0.000000000000000e+00
	-6.979898097354058e-01
	-1.723297863659250e+00
	-6.979898097354058e-04

 166	1.464999999999997e-06
	0.000000000000000e+00
	-7.012294175789543e-01
	-1.723062159679129e+00
	-7.012294175789543e-04

 167	1.474999999999997e-06
	0.000000000000000e+00
	-7.044027106252669e-01
	-1.722860705991795e+00
	-7.044027106252670e-04

 168	1.484999999999997e-06
	0.000000000000000e+00
	-7.075113362373273e-01
	-1.722692510145422e+00
	-7.075113362373273e-04

 169	1.494999999999997e-06
	0.000000000000000e+00
	-7.105568994598056e-01
	-1.722556605744458e+00
	-7.105568994598056e-04

 170	1.504999999999997e-06
	0.000000000000000e+00
	-7.135409641116869e-01
	-1.722452051774719e+00
	-7.135409641116869e-04

 171	1.514999999999997e-06
	0.000000000000000e+00
	-7.164650538506668e-01
	-1.722377931945928e+00
	-7.164650538506669e-04

 172	1.524999999999996e-06
	0.000000000000000e+00
	-7.193306532100457e-01
	-1.722333354051246e+00
	-7.193306532100457e-04

 173	1.534999999999996e-06
	0.000000000000000e+00
	-7.221392086088303e-01
	-1.722317449343367e+00
	-7.221392086088303e-04

 174	1.544999999999996e-06
	0.000000000000000e+00
	-7.248921293357352e-01
	-1.722329371926739e+00
	-7.248921293357352e-04

 175	1.554999999999996e-06
	0.000000000000000e+00
	-7.275907885077615e-01
	-1.722368298165495e+00
	-7.275907885077615e-04

 176	1.564999999999996e-06
	0.000000000000000e+00
	-7.302365240040047e-01
	-1.722433426106693e+00
	-7.302365240040048e-04

 177	1.574999999999996e-06
	0.000000000000000e+00
	-7.328306393753373e-01
	-1.722523974918464e+00
	-7.328306393753374e-04

 178	1.584999999999996e-06
	0.000000000000000e+00
	-7.353744047305840e-01
	-1.722639184342688e+00
	-7.353744047305840e-04

 179	1.594999999999996e-06
	0.000000000000000e+00
	-7.378690575998027e-01
	-1.722778314161817e+00
	-7.378690575998027e-04

 180	1.604999999999996e-06
	0.000000000000000e+00
	-7.403158037752586e-01
	-1.722940643679486e+00
	-7.403158037752587e-04

 181	1.614999999999996e-06
	0.000000000000000e+00
	-7.427158181306696e-01
	-1.723125471214545e+00
	-7.427158181306696e-04

 182	1.624999999999995e-06
	0.000000000000000e+00
	-7.450702454192838e-01
	-1.723332113608181e+00
	-7.450702454192838e-04

 183	1.634999999999995e-06
	0.000000000000000e+00
	-7.473802010513374e-01
	-1.723559905743774e+00
	-7.473802010513374e-04

 184	1.644999999999995e-06
	0.000000000000000e+00
	-7.496467718514245e-01
	-1.723808200079173e+00
	-7.496467718514245e-04

 185	1.654999999999995e-06
	0.000000000000000e+00
	-7.518710167962985e-01
	-1.724076366191061e+00
	-7.518710167962985e-04

 186	1.664999999999995e-06
	0.000000000000000e+00
	-7.540539677336103e-01
	-1.724363790331099e+00
	-7.540539677336103e-04

 187	1.674999999999995e-06
	0.000000000000000e+00
	-7.561966300820769e-01
	-1.724669874993554e+00
	-7.561966300820770e-04

 188	1.684999999999995e-06
	0.000000000000000e+00
	-7.582999835135591e-01
	-1.724994038494094e+00
	-7.582999835135592e-04

 189	1.694999999999995e-06
	0.000000000000000e+00
	-7.603649826175164e-01
	-1.725335714559481e+00
	-7.603649826175165e-04

 190	1.704999999999995e-06
	0.000000000000000e+00
	-7.623925575482950e-01
	-1.725694351927873e+00
	-7.623925575482951e-04

 191	1.714999999999995e-06
	0.000000000000000e+00
	-7.643836146556918e-01
	-1.726069413959456e+00
	-7.643836146556918e-04

 192	1.724999999999994e-06
	0.000000000000000e+00
	-7.663390370992256e-01
	-1.726460378257147e+00
	-7.663390370992256e-04

 193	1.734999999999994e-06
	0.000000000000000e+00
	-7.682596854465390e-01
	-1.726866736297105e+00
	-7.682596854465390e-04

 194	1.744999999999994e-06
	0.000000000000000e+00
	-7.701463982563397e-01
	-1.727287993068789e+00
	-7.701463982563397e-04

 195	1.754999999999994e-06
	0.000000000000000e+00
	-7.719999926462793e-01
	-1.727723666724337e+00
	-7.719999926462793e-04

 196	1.764999999999994e-06
	0.000000000000000e+00
	-7.738212648461616e-01
	-1.728173288236992e+00
	-7.738212648461617e-04

 197	1.774999999999994e-06
	0.000000000000000e+00
	-7.756109907368586e-01
	-1.728636401068380e+00
	-7.756109907368586e-04

 198	1.784999999999994e-06
	0.000000000000000e+00
	-7.773699263753009e-01
	-1.729112560844377e+00
	-7.773699263753009e-04

 199	1.794999999999994e-06
	0.000000000000000e+00
	-7.790988085059076e-01
	-1.729601335039364e+00
	-7.790988085059076e-04

 200	1.804999999999994e-06
	0.000000000000000e+00
	-7.807983550588008e-01
	-1.730102302668647e+00
	-7.807983550588008e-04

 201	1.814999999999994e-06
	0.000000000000000e+00
	-7.824692656351486e-01
	-1.730615053988829e+00
	-7.824692656351487e-04

 202	1.824999999999994e-06
	0.000000000000000e+00
	-7.841122219799712e-01
	-1.731139190205931e+00
	-7.841122219799712e-04

 203	1.834999999999993e-06
	0.000000000000000e+00
	-7.857278884427292e-01
	-1.731674323191059e+00
	-7.857278884427293e-04

 204	1.844999999999993e-06
	0.000000000000000e+00
	-7.873169124260143e-01
	-1.732220075203431e+00
	-7.873169124260143e-04

 205	1.854999999999993e-06
	0.000000000000000e+00
	-7.888799248226476e-01
	-1.732776078620555e+00
	-7.888799248226475e-04

 206	1.864999999999993e-06
	0.000000000000000e+00
	-7.904175404414860e-01
	-1.733341975675396e+00
	-7.904175404414860e-04

 207	1.874999999999993e-06
	0.000000000000000e+00
	-7.919303584222276e-01
	-1.733917418200336e+00
	-7.919303584222276e-04

 208	1.884999999999993e-06
	0.000000000000000e+00
	-7.934189626395011e-01
	-1.734502067377754e+00
	-7.934189626395010e-04

 209	1.894999999999993e-06
	0.000000000000000e+00
	-7.948839220965151e-01
	-1.735095593497060e+00
	-7.948839220965152e-04

 210	1.904999999999993e-06
	0.000000000000000e+00
	-7.963257913085398e-01
	-1.735697675718010e+00
	-7.963257913085398e-04

 211	1.914999999999993e-06
	0.000000000000000e+00
	-7.977451106764804e-01
	-1.736308001840144e+00
	-7.977451106764803e-04

 212	1.924999999999993e-06
	0.000000000000000e+00
	-7.991424068507994e-01
	-1.736926268078188e+00
	-7.991424068507994e-04

 213	1.934999999999992e-06
	0.000000000000000e+00
	-8.005181930860383e-01
	-1.737552178843265e+00
	-8.005181930860383e-04

 214	1.944999999999992e-06
	0.000000000000000e+00
	-8.018729695861812e-01
	-1.738185446529760e+00
	-8.018729695861811e-04

 215	1.954999999999992e-06
	0.000000000000000e+00
	-8.032072238410958e-01
	-1.738825791307709e+00
	-8.032072238410958e-04

 216	1.964999999999992e-06
	0.000000000000000e+00
	-8.045214309542833e-01
	-1.739472940920544e+00
	-8.045214309542833e-04

 217	1.974999999999992e-06
	0.000000000000000e+00
	-8.058160539621619e-01
	-1.740126630488083e+00
	-8.058160539621620e-04

 218	1.984999999999992e-06
	0.000000000000000e+00
	-8.070915441451029e-01
	-1.740786602314605e+00
	-8.070915441451029e-04

 219	1.994999999999992e-06
	0.000000000000000e+00
	-8.083483413304303e-01
	-1.741452605701900e+00
	-8.083483413304304e-04

 220	2.004999999999992e-06
	0.000000000000000e+00
	-8.095868741875952e-01
	-1.742124396767145e+00
	-8.095868741875952e-04

 221	2.010000000000000e-06
	0.000000000000000e+00
	-8.101994097485741e-01
	-1.742462395496327e+00
	-8.101994097485741e-04

 222	2.011000000000000e-06
	1.000000000000075e-01
	-8.102214968417968e-01
	-1.742530086906263e+00
	-9.102214968418044e-04

 223	2.013000000000000e-06
	3.000000000000225e-01
	-8.100661168805123e-01
	-1.742665179253825e+00
	-1.110066116880535e-03

 224	2.017000000000000e-06
	7.000000000000102e-01
	-8.085627940836210e-01
	-1.742931244228788e+00
	-1.508562794083631e-03

 225	2.020000000000000e-06
	9.999999999999905e-01
	-8.063969984725221e-01
	-1.743124600151052e+00
	-1.806396998472513e-03

 226	2.020800000000000e-06
	1.000000000000000e+00
	-8.057024143075379e-01
	-1.743174622384590e+00
	-1.805702414307538e-03

 227	2.022400000000000e-06
	1.000000000000000e+00
	-8.043155440546829e-01
	-1.743273478270756e+00
	-1.804315544054683e-03

 228	2.025600000000000e-06
	1.000000000000000e+00
	-8.015555367084947e-01
	-1.743464091887724e+00
	-1.801555536708495e-03

 229	2.032000000000000e-06
	1.000000000000000e+00
	-7.960899061903465e-01
	-1.743817256988596e+00
	-1.796089906190347e-03

 230	2.042000000000000e-06
	1.000000000000000e+00
	-7.876926449906413e-01
	-1.744295605432396e+00
	-1.787692644990641e-03

 231	2.052000000000000e-06
	1.000000000000000e+00
	-7.794659693149306e-01
	-1.744686488036580e+00
	-1.779465969314931e-03

 232	2.061999999999999e-06
	1.000000000000000e+00
	-7.714056478406829e-01
	-1.744992451425050e+00
	-1.771405647840683e-03

 233	2.071999999999999e-06
	1.000000000000000e+00
	-7.635075579168336e-01
	-1.745215975320111e+00
	-1.763507557916833e-03

 234	2.081999999999999e-06
	1.000000000000000e+00
	-7.557676827580628e-01
	-1.745359474275508e+00
	-1.755767682758063e-03

 235	2.091999999999999e-06
	1.000000000000000e+00
	-7.481821087115677e-01
	-1.745425299364656e+00
	-1.748182108711568e-03

 236	2.101999999999999e-06
	1.000000000000000e+00
	-7.407470225944570e-01
	-1.745415739825236e+00
	-1.740747022594457e-03

 237	2.111999999999999e-06
	1.000000000000000e+00
	-7.334587090999456e-01
	-1.745333024661275e+00
	-1.733458709099946e-03

 238	2.121999999999999e-06
	1.000000000000000e+00
	-7.263135482705658e-01
	-1.745179324203802e+00
	-1.726313548270566e-03

 239	2.131999999999999e-06
	1.000000000000000e+00
	-7.193080130366682e-01
	-1.744956751631163e+00
	-1.719308013036668e-03

 240	2.141999999999999e-06
	1.000000000000000e+00
	-7.124386668185224e-01
	-1.744667364450033e+00
	-1.712438666818522e-03

 241	2.151999999999999e-06
	1.000000000000000e+00
	-7.057021611903744e-01
	-1.744313165938137e+00
	-1.705702161190374e-03

 242	2.161999999999999e-06
	1.000000000000000e+00
	-6.990952336048614e-01
	-1.743896106549674e+00